
     Program BANDS v.7.1 starts on  3Jun2023 at  8:40:17 

     This program is part of the open-source Quantum ESPRESSO suite
     for quantum simulation of materials; please cite
         "P. Giannozzi et al., J. Phys.:Condens. Matter 21 395502 (2009);
         "P. Giannozzi et al., J. Phys.:Condens. Matter 29 465901 (2017);
         "P. Giannozzi et al., J. Chem. Phys. 152 154105 (2020);
          URL http://www.quantum-espresso.org", 
     in publications or presentations arising from this work. More details at
     http://www.quantum-espresso.org/quote

     Parallel version (MPI & OpenMP), running on      60 processor cores
     Number of MPI processes:                30
     Threads/MPI process:                     2

     MPI processes distributed on     5 nodes
     R & G space division:  proc/nbgrp/npool/nimage =      30
     5184 MiB available memory on the printing compute node when the environment starts


     Reading xml data from directory:

     ../out/TiS.save/

     IMPORTANT: XC functional enforced from input :
     Exchange-correlation= PBE
                           (   1   4   3   4   0   0   0)
     Any further DFT definition will be discarded
     Please, verify this is what you really want


     Parallelization info
     --------------------
     sticks:   dense  smooth     PW     G-vecs:    dense   smooth      PW
     Min          24      12      4                 1094      386      66
     Max          25      13      5                 1107      395      72
     Sum         745     379    121                33091    11681    2079

     Using Slab Decomposition


     Check: negative core charge=   -0.000005

     negative rho (up, down):  1.564E-03 0.000E+00
     Reading collected, re-writing distributed wavefunctions
     high-symmetry point:  0.0000 0.0000 0.0000   x coordinate   0.0000
     high-symmetry point:  0.5000 0.2887 0.0000   x coordinate   0.5774
     high-symmetry point:  0.3333 0.5773 0.0000   x coordinate   0.9107
     high-symmetry point:  0.0000 0.0000 0.0000   x coordinate   1.5773
     high-symmetry point:  0.0000 0.0000 0.2504   x coordinate   1.8277
     high-symmetry point:  0.5000 0.2887 0.2504   x coordinate   2.4050
     high-symmetry point:  0.3333 0.5773 0.2504   x coordinate   2.7383
     high-symmetry point:  0.0000 0.0000 0.2504   x coordinate   3.4049

     Plottable bands (eV) written to file TiS.bands.gnu
     Bands written to file TiS.bands

 **************************************************************************

                    xk=(   0.00000,   0.00000,   0.00000  )

     point group D_2h (mmm) 
     there are  8 classes
     the character table:

       E     C2    C2'   C2''  i     s_v   s_v'  s_v''
A_g    1.00  1.00  1.00  1.00  1.00  1.00  1.00  1.00
B_1g   1.00  1.00 -1.00 -1.00  1.00  1.00 -1.00 -1.00
B_2g   1.00 -1.00  1.00 -1.00  1.00 -1.00  1.00 -1.00
B_3g   1.00 -1.00 -1.00  1.00  1.00 -1.00 -1.00  1.00
A_u    1.00  1.00  1.00  1.00 -1.00 -1.00 -1.00 -1.00
B_1u   1.00  1.00 -1.00 -1.00 -1.00 -1.00  1.00  1.00
B_2u   1.00 -1.00  1.00 -1.00 -1.00  1.00 -1.00  1.00
B_3u   1.00 -1.00 -1.00  1.00 -1.00  1.00  1.00 -1.00

     the symmetry operations in each class and the name of the first element:

     E        1
                                                                 
     C2       2
                                                                 
     C2'      4
                                                                 
     C2''     3
                                                                 
     i        5
                                                                 
     s_v      6
                                                                 
     s_v'     8
                                                                 
     s_v''    7
                                                                 

     Band symmetry, D_2h (mmm)  point group:

     e(  1 -  1) =    -44.23789  eV     1   --> A_g            
     e(  2 -  2) =    -44.22739  eV     1   --> B_2g           
     e(  3 -  3) =    -20.64386  eV     1   --> B_3u           
     e(  4 -  4) =    -20.49487  eV     1   --> B_1u           
     e(  5 -  6) =    -20.42529  eV     2   --> B_2u           
     e(  5 -  6) =    -20.42529  eV     2   --> B_3u           
     e(  7 -  8) =    -20.41273  eV     2   --> A_u            
     e(  7 -  8) =    -20.41273  eV     2   --> B_1u           
     e(  9 -  9) =     -2.45710  eV     1   --> A_g            
     e( 10 - 10) =     -1.30729  eV     1   --> B_3u           
     e( 11 - 11) =      5.44667  eV     1   --> B_2g           
     e( 12 - 12) =      9.56096  eV     1   --> A_g            
     e( 13 - 13) =      9.56135  eV     1   --> B_1g           
     e( 14 - 14) =      9.69826  eV     1   --> B_1u           
     e( 15 - 15) =     11.05358  eV     1   --> A_g            
     e( 16 - 16) =     11.59744  eV     1   --> B_3u           
     e( 17 - 17) =     11.59767  eV     1   --> B_2u           
     e( 18 - 19) =     12.89034  eV     2   --> B_2g           
     e( 18 - 19) =     12.89034  eV     2   --> B_3g           
     e( 20 - 21) =     13.18351  eV     2   --> A_g            
     e( 20 - 21) =     13.18351  eV     2   --> B_1g           
     e( 22 - 22) =     14.41818  eV     1   --> B_2g           
     e( 23 - 23) =     14.41839  eV     1   --> B_3g           
     e( 24 - 24) =     14.63555  eV     1   --> B_2g           
     e( 25 - 25) =     16.69982  eV     1   --> B_1g           
     e( 26 - 26) =     16.70049  eV     1   --> A_g            
     e( 27 - 27) =     17.11032  eV     1   --> A_g            
     e( 28 - 28) =     17.67109  eV     1   --> B_3u           
     e( 29 - 29) =     21.00182  eV     1   --> B_2u           
     e( 30 - 30) =     21.00214  eV     1   --> B_3u           
     e( 31 - 31) =     22.29873  eV     1   --> A_g            
     e( 32 - 32) =     23.28881  eV     1   --> B_2g           
     e( 33 - 33) =     24.17686  eV     1   --> B_1u           
     e( 34 - 34) =     24.50608  eV     1   --> A_g            
     e( 35 - 35) =     24.50647  eV     1   --> B_1g           
     e( 36 - 36) =     24.97207  eV     1   --> B_1u           
     e( 37 - 37) =     24.97272  eV     1   --> A_u            
     e( 38 - 38) =     25.93471  eV     1   --> B_3u           
     e( 39 - 39) =     26.75944  eV     1   --> B_3g           
     e( 40 - 40) =     26.76023  eV     1   --> B_2g           

 **************************************************************************

 **************************************************************************

                    xk=(   0.01000,   0.00577,   0.00000  )

     point group C_s (m)    
     there are  2 classes
     the character table:

       E     s    
A'     1.00  1.00
A''    1.00 -1.00

     the symmetry operations in each class and the name of the first element:

     E        1
                                                                 
     s        2
                                                                 

     Band symmetry, C_s (m)     point group:

     e(  1 -  1) =    -44.23786  eV     1   --> A'             
     e(  2 -  2) =    -44.22737  eV     1   --> A''            
     e(  3 -  3) =    -20.64381  eV     1   --> A'             
     e(  4 -  4) =    -20.49485  eV     1   --> A''            
     e(  5 -  5) =    -20.42545  eV     1   --> A'             
     e(  6 -  6) =    -20.42532  eV     1   --> A'             
     e(  7 -  7) =    -20.41289  eV     1   --> A''            
     e(  8 -  8) =    -20.41277  eV     1   --> A''            
     e(  9 -  9) =     -2.45576  eV     1   --> A'             
     e( 10 - 10) =     -1.30677  eV     1   --> A'             
     e( 11 - 11) =      5.44842  eV     1   --> A''            
     e( 12 - 12) =      9.55793  eV     1   --> A'             
     e( 13 - 13) =      9.56090  eV     1   --> A'             
     e( 14 - 14) =      9.69547  eV     1   --> A''            
     e( 15 - 15) =     11.05203  eV     1   --> A'             
     e( 16 - 16) =     11.58895  eV     1   --> A'             
     e( 17 - 17) =     11.59242  eV     1   --> A'             
     e( 18 - 18) =     12.89168  eV     1   --> A''            
     e( 19 - 19) =     12.89268  eV     1   --> A''            
     e( 20 - 20) =     13.18683  eV     1   --> A'             
     e( 21 - 21) =     13.18908  eV     1   --> A'             
     e( 22 - 22) =     14.41782  eV     1   --> A''            
     e( 23 - 23) =     14.41863  eV     1   --> A''            
     e( 24 - 24) =     14.63591  eV     1   --> A''            
     e( 25 - 25) =     16.69380  eV     1   --> A'             
     e( 26 - 26) =     16.69910  eV     1   --> A'             
     e( 27 - 27) =     17.11659  eV     1   --> A'             
     e( 28 - 28) =     17.68111  eV     1   --> A'             
     e( 29 - 29) =     20.99794  eV     1   --> A'             
     e( 30 - 30) =     21.00771  eV     1   --> A'             
     e( 31 - 31) =     22.30329  eV     1   --> A'             
     e( 32 - 32) =     23.27265  eV     1   --> A''            
     e( 33 - 33) =     24.17398  eV     1   --> A''            
     e( 34 - 34) =     24.48194  eV     1   --> A'             
     e( 35 - 35) =     24.50780  eV     1   --> A'             
     e( 36 - 36) =     24.96776  eV     1   --> A''            
     e( 37 - 37) =     24.98286  eV     1   --> A''            
     e( 38 - 38) =     25.96242  eV     1   --> A'             
     e( 39 - 39) =     26.75922  eV     1   --> A''            
     e( 40 - 40) =     26.76631  eV     1   --> A''            

 **************************************************************************

 **************************************************************************

                    xk=(   0.02000,   0.01155,   0.00000  )

     Band symmetry, C_s (m)     point group:

     e(  1 -  1) =    -44.23782  eV     1   --> A'             
     e(  2 -  2) =    -44.22730  eV     1   --> A''            
     e(  3 -  3) =    -20.64366  eV     1   --> A'             
     e(  4 -  4) =    -20.49478  eV     1   --> A''            
     e(  5 -  5) =    -20.42600  eV     1   --> A'             
     e(  6 -  6) =    -20.42544  eV     1   --> A'             
     e(  7 -  7) =    -20.41338  eV     1   --> A''            
     e(  8 -  8) =    -20.41288  eV     1   --> A''            
     e(  9 -  9) =     -2.45175  eV     1   --> A'             
     e( 10 - 10) =     -1.30518  eV     1   --> A'             
     e( 11 - 11) =      5.45369  eV     1   --> A''            
     e( 12 - 12) =      9.54803  eV     1   --> A'             
     e( 13 - 13) =      9.56037  eV     1   --> A'             
     e( 14 - 14) =      9.68717  eV     1   --> A''            
     e( 15 - 15) =     11.04690  eV     1   --> A'             
     e( 16 - 16) =     11.56394  eV     1   --> A'             
     e( 17 - 17) =     11.57741  eV     1   --> A'             
     e( 18 - 18) =     12.89568  eV     1   --> A''            
     e( 19 - 19) =     12.89963  eV     1   --> A''            
     e( 20 - 20) =     13.19629  eV     1   --> A'             
     e( 21 - 21) =     13.20548  eV     1   --> A'             
     e( 22 - 22) =     14.41659  eV     1   --> A''            
     e( 23 - 23) =     14.41948  eV     1   --> A''            
     e( 24 - 24) =     14.63702  eV     1   --> A''            
     e( 25 - 25) =     16.67582  eV     1   --> A'             
     e( 26 - 26) =     16.69537  eV     1   --> A'             
     e( 27 - 27) =     17.13533  eV     1   --> A'             
     e( 28 - 28) =     17.71045  eV     1   --> A'             
     e( 29 - 29) =     20.98610  eV     1   --> A'             
     e( 30 - 30) =     21.02430  eV     1   --> A'             
     e( 31 - 31) =     22.31668  eV     1   --> A'             
     e( 32 - 32) =     23.22577  eV     1   --> A''            
     e( 33 - 33) =     24.16496  eV     1   --> A''            
     e( 34 - 34) =     24.41365  eV     1   --> A'             
     e( 35 - 35) =     24.51258  eV     1   --> A'             
     e( 36 - 36) =     24.95429  eV     1   --> A''            
     e( 37 - 37) =     25.01248  eV     1   --> A''            
     e( 38 - 38) =     26.04050  eV     1   --> A'             
     e( 39 - 39) =     26.75695  eV     1   --> A''            
     e( 40 - 40) =     26.78632  eV     1   --> A''            

 **************************************************************************

 **************************************************************************

                    xk=(   0.03000,   0.01732,   0.00000  )

     Band symmetry, C_s (m)     point group:

     e(  1 -  1) =    -44.23772  eV     1   --> A'             
     e(  2 -  2) =    -44.22721  eV     1   --> A''            
     e(  3 -  3) =    -20.64343  eV     1   --> A'             
     e(  4 -  4) =    -20.49465  eV     1   --> A''            
     e(  5 -  5) =    -20.42691  eV     1   --> A'             
     e(  6 -  6) =    -20.42564  eV     1   --> A'             
     e(  7 -  7) =    -20.41422  eV     1   --> A''            
     e(  8 -  8) =    -20.41307  eV     1   --> A''            
     e(  9 -  9) =     -2.44506  eV     1   --> A'             
     e( 10 - 10) =     -1.30256  eV     1   --> A'             
     e( 11 - 11) =      5.46243  eV     1   --> A''            
     e( 12 - 12) =      9.53161  eV     1   --> A'             
     e( 13 - 13) =      9.55949  eV     1   --> A'             
     e( 14 - 14) =      9.67350  eV     1   --> A''            
     e( 15 - 15) =     11.03652  eV     1   --> A'             
     e( 16 - 16) =     11.52552  eV     1   --> A'             
     e( 17 - 17) =     11.55318  eV     1   --> A'             
     e( 18 - 18) =     12.90233  eV     1   --> A''            
     e( 19 - 19) =     12.91094  eV     1   --> A''            
     e( 20 - 20) =     13.21102  eV     1   --> A'             
     e( 21 - 21) =     13.23201  eV     1   --> A'             
     e( 22 - 22) =     14.41459  eV     1   --> A''            
     e( 23 - 23) =     14.42103  eV     1   --> A''            
     e( 24 - 24) =     14.63887  eV     1   --> A''            
     e( 25 - 25) =     16.64750  eV     1   --> A'             
     e( 26 - 26) =     16.68929  eV     1   --> A'             
     e( 27 - 27) =     17.16636  eV     1   --> A'             
     e( 28 - 28) =     17.75725  eV     1   --> A'             
     e( 29 - 29) =     20.96736  eV     1   --> A'             
     e( 30 - 30) =     21.05174  eV     1   --> A'             
     e( 31 - 31) =     22.33814  eV     1   --> A'             
     e( 32 - 32) =     23.15231  eV     1   --> A''            
     e( 33 - 33) =     24.14890  eV     1   --> A''            
     e( 34 - 34) =     24.31285  eV     1   --> A'             
     e( 35 - 35) =     24.52054  eV     1   --> A'             
     e( 36 - 36) =     24.93196  eV     1   --> A''            
     e( 37 - 37) =     25.05800  eV     1   --> A''            
     e( 38 - 38) =     26.15764  eV     1   --> A'             
     e( 39 - 39) =     26.75353  eV     1   --> A''            
     e( 40 - 40) =     26.81981  eV     1   --> A''            

 **************************************************************************

 **************************************************************************

                    xk=(   0.04000,   0.02309,   0.00000  )

     Band symmetry, C_s (m)     point group:

     e(  1 -  1) =    -44.23759  eV     1   --> A'             
     e(  2 -  2) =    -44.22708  eV     1   --> A''            
     e(  3 -  3) =    -20.64311  eV     1   --> A'             
     e(  4 -  4) =    -20.49448  eV     1   --> A''            
     e(  5 -  5) =    -20.42819  eV     1   --> A'             
     e(  6 -  6) =    -20.42592  eV     1   --> A'             
     e(  7 -  7) =    -20.41539  eV     1   --> A''            
     e(  8 -  8) =    -20.41333  eV     1   --> A''            
     e(  9 -  9) =     -2.43572  eV     1   --> A'             
     e( 10 - 10) =     -1.29889  eV     1   --> A'             
     e( 11 - 11) =      5.47465  eV     1   --> A''            
     e( 12 - 12) =      9.50882  eV     1   --> A'             
     e( 13 - 13) =      9.55822  eV     1   --> A'             
     e( 14 - 14) =      9.65466  eV     1   --> A''            
     e( 15 - 15) =     11.01774  eV     1   --> A'             
     e( 16 - 16) =     11.47871  eV     1   --> A'             
     e( 17 - 17) =     11.52074  eV     1   --> A'             
     e( 18 - 18) =     12.91161  eV     1   --> A''            
     e( 19 - 19) =     12.92625  eV     1   --> A''            
     e( 20 - 20) =     13.22979  eV     1   --> A'             
     e( 21 - 21) =     13.26763  eV     1   --> A'             
     e( 22 - 22) =     14.41179  eV     1   --> A''            
     e( 23 - 23) =     14.42341  eV     1   --> A''            
     e( 24 - 24) =     14.64151  eV     1   --> A''            
     e( 25 - 25) =     16.61077  eV     1   --> A'             
     e( 26 - 26) =     16.68107  eV     1   --> A'             
     e( 27 - 27) =     17.20924  eV     1   --> A'             
     e( 28 - 28) =     17.81905  eV     1   --> A'             
     e( 29 - 29) =     20.94307  eV     1   --> A'             
     e( 30 - 30) =     21.08992  eV     1   --> A'             
     e( 31 - 31) =     22.36652  eV     1   --> A'             
     e( 32 - 32) =     23.05748  eV     1   --> A''            
     e( 33 - 33) =     24.12480  eV     1   --> A''            
     e( 34 - 34) =     24.19082  eV     1   --> A'             
     e( 35 - 35) =     24.53171  eV     1   --> A'             
     e( 36 - 36) =     24.90058  eV     1   --> A''            
     e( 37 - 37) =     25.11518  eV     1   --> A''            
     e( 38 - 38) =     26.30260  eV     1   --> A'             
     e( 39 - 39) =     26.74944  eV     1   --> A''            
     e( 40 - 40) =     26.86685  eV     1   --> A''            

 **************************************************************************

 **************************************************************************

                    xk=(   0.05000,   0.02887,   0.00000  )

     Band symmetry, C_s (m)     point group:

     e(  1 -  1) =    -44.23742  eV     1   --> A'             
     e(  2 -  2) =    -44.22692  eV     1   --> A''            
     e(  3 -  3) =    -20.64270  eV     1   --> A'             
     e(  4 -  4) =    -20.49425  eV     1   --> A''            
     e(  5 -  5) =    -20.42981  eV     1   --> A'             
     e(  6 -  6) =    -20.42629  eV     1   --> A'             
     e(  7 -  7) =    -20.41688  eV     1   --> A''            
     e(  8 -  8) =    -20.41368  eV     1   --> A''            
     e(  9 -  9) =     -2.42374  eV     1   --> A'             
     e( 10 - 10) =     -1.29418  eV     1   --> A'             
     e( 11 - 11) =      5.49032  eV     1   --> A''            
     e( 12 - 12) =      9.47985  eV     1   --> A'             
     e( 13 - 13) =      9.55655  eV     1   --> A'             
     e( 14 - 14) =      9.63093  eV     1   --> A''            
     e( 15 - 15) =     10.98568  eV     1   --> A'             
     e( 16 - 16) =     11.43051  eV     1   --> A'             
     e( 17 - 17) =     11.48129  eV     1   --> A'             
     e( 18 - 18) =     12.92350  eV     1   --> A''            
     e( 19 - 19) =     12.94503  eV     1   --> A''            
     e( 20 - 20) =     13.25128  eV     1   --> A'             
     e( 21 - 21) =     13.31109  eV     1   --> A'             
     e( 22 - 22) =     14.40823  eV     1   --> A''            
     e( 23 - 23) =     14.42686  eV     1   --> A''            
     e( 24 - 24) =     14.64499  eV     1   --> A''            
     e( 25 - 25) =     16.56753  eV     1   --> A'             
     e( 26 - 26) =     16.67095  eV     1   --> A'             
     e( 27 - 27) =     17.26323  eV     1   --> A'             
     e( 28 - 28) =     17.89339  eV     1   --> A'             
     e( 29 - 29) =     20.91480  eV     1   --> A'             
     e( 30 - 30) =     21.13855  eV     1   --> A'             
     e( 31 - 31) =     22.40052  eV     1   --> A'             
     e( 32 - 32) =     22.94627  eV     1   --> A''            
     e( 33 - 33) =     24.05605  eV     1   --> A'             
     e( 34 - 34) =     24.09185  eV     1   --> A''            
     e( 35 - 35) =     24.54607  eV     1   --> A'             
     e( 36 - 36) =     24.86020  eV     1   --> A''            
     e( 37 - 37) =     25.17997  eV     1   --> A''            
     e( 38 - 38) =     26.46693  eV     1   --> A'             
     e( 39 - 39) =     26.74527  eV     1   --> A''            
     e( 40 - 40) =     26.92734  eV     1   --> A''            

 **************************************************************************

 **************************************************************************

                    xk=(   0.06000,   0.03464,   0.00000  )

     Band symmetry, C_s (m)     point group:

     e(  1 -  1) =    -44.23723  eV     1   --> A'             
     e(  2 -  2) =    -44.22673  eV     1   --> A''            
     e(  3 -  3) =    -20.64220  eV     1   --> A'             
     e(  4 -  4) =    -20.49397  eV     1   --> A''            
     e(  5 -  5) =    -20.43179  eV     1   --> A'             
     e(  6 -  6) =    -20.42673  eV     1   --> A'             
     e(  7 -  7) =    -20.41869  eV     1   --> A''            
     e(  8 -  8) =    -20.41410  eV     1   --> A''            
     e(  9 -  9) =     -2.40914  eV     1   --> A'             
     e( 10 - 10) =     -1.28845  eV     1   --> A'             
     e( 11 - 11) =      5.50940  eV     1   --> A''            
     e( 12 - 12) =      9.44495  eV     1   --> A'             
     e( 13 - 13) =      9.55442  eV     1   --> A'             
     e( 14 - 14) =      9.60265  eV     1   --> A''            
     e( 15 - 15) =     10.93471  eV     1   --> A'             
     e( 16 - 16) =     11.38872  eV     1   --> A'             
     e( 17 - 17) =     11.43610  eV     1   --> A'             
     e( 18 - 18) =     12.93798  eV     1   --> A''            
     e( 19 - 19) =     12.96664  eV     1   --> A''            
     e( 20 - 20) =     13.27432  eV     1   --> A'             
     e( 21 - 21) =     13.36112  eV     1   --> A'             
     e( 22 - 22) =     14.40396  eV     1   --> A''            
     e( 23 - 23) =     14.43166  eV     1   --> A''            
     e( 24 - 24) =     14.64934  eV     1   --> A''            
     e( 25 - 25) =     16.51939  eV     1   --> A'             
     e( 26 - 26) =     16.65926  eV     1   --> A'             
     e( 27 - 27) =     17.32735  eV     1   --> A'             
     e( 28 - 28) =     17.97801  eV     1   --> A'             
     e( 29 - 29) =     20.88427  eV     1   --> A'             
     e( 30 - 30) =     21.19736  eV     1   --> A'             
     e( 31 - 31) =     22.43879  eV     1   --> A'             
     e( 32 - 32) =     22.82290  eV     1   --> A''            
     e( 33 - 33) =     23.91429  eV     1   --> A'             
     e( 34 - 34) =     24.04944  eV     1   --> A''            
     e( 35 - 35) =     24.56365  eV     1   --> A'             
     e( 36 - 36) =     24.81092  eV     1   --> A''            
     e( 37 - 37) =     25.24912  eV     1   --> A''            
     e( 38 - 38) =     26.64497  eV     1   --> A'             
     e( 39 - 39) =     26.74167  eV     1   --> A''            
     e( 40 - 40) =     27.00088  eV     1   --> A''            

 **************************************************************************

 **************************************************************************

                    xk=(   0.07000,   0.04041,   0.00000  )

     Band symmetry, C_s (m)     point group:

     e(  1 -  1) =    -44.23699  eV     1   --> A'             
     e(  2 -  2) =    -44.22650  eV     1   --> A''            
     e(  3 -  3) =    -20.64161  eV     1   --> A'             
     e(  4 -  4) =    -20.49365  eV     1   --> A''            
     e(  5 -  5) =    -20.43410  eV     1   --> A'             
     e(  6 -  6) =    -20.42725  eV     1   --> A'             
     e(  7 -  7) =    -20.42081  eV     1   --> A''            
     e(  8 -  8) =    -20.41460  eV     1   --> A''            
     e(  9 -  9) =     -2.39195  eV     1   --> A'             
     e( 10 - 10) =     -1.28171  eV     1   --> A'             
     e( 11 - 11) =      5.53188  eV     1   --> A''            
     e( 12 - 12) =      9.40440  eV     1   --> A'             
     e( 13 - 13) =      9.55180  eV     1   --> A'             
     e( 14 - 14) =      9.57018  eV     1   --> A''            
     e( 15 - 15) =     10.86118  eV     1   --> A'             
     e( 16 - 16) =     11.35895  eV     1   --> A'             
     e( 17 - 17) =     11.38635  eV     1   --> A'             
     e( 18 - 18) =     12.95499  eV     1   --> A''            
     e( 19 - 19) =     12.99035  eV     1   --> A''            
     e( 20 - 20) =     13.29799  eV     1   --> A'             
     e( 21 - 21) =     13.41645  eV     1   --> A'             
     e( 22 - 22) =     14.39900  eV     1   --> A''            
     e( 23 - 23) =     14.43815  eV     1   --> A''            
     e( 24 - 24) =     14.65466  eV     1   --> A''            
     e( 25 - 25) =     16.46761  eV     1   --> A'             
     e( 26 - 26) =     16.64635  eV     1   --> A'             
     e( 27 - 27) =     17.40046  eV     1   --> A'             
     e( 28 - 28) =     18.07090  eV     1   --> A'             
     e( 29 - 29) =     20.85324  eV     1   --> A'             
     e( 30 - 30) =     21.26600  eV     1   --> A'             
     e( 31 - 31) =     22.48007  eV     1   --> A'             
     e( 32 - 32) =     22.69075  eV     1   --> A''            
     e( 33 - 33) =     23.76941  eV     1   --> A'             
     e( 34 - 34) =     23.99717  eV     1   --> A''            
     e( 35 - 35) =     24.58445  eV     1   --> A'             
     e( 36 - 36) =     24.75287  eV     1   --> A''            
     e( 37 - 37) =     25.32046  eV     1   --> A''            
     e( 38 - 38) =     26.73928  eV     1   --> A''            
     e( 39 - 39) =     26.83301  eV     1   --> A'             
     e( 40 - 40) =     27.08669  eV     1   --> A''            

 **************************************************************************

 **************************************************************************

                    xk=(   0.08000,   0.04619,   0.00000  )

     Band symmetry, C_s (m)     point group:

     e(  1 -  1) =    -44.23672  eV     1   --> A'             
     e(  2 -  2) =    -44.22623  eV     1   --> A''            
     e(  3 -  3) =    -20.64094  eV     1   --> A'             
     e(  4 -  4) =    -20.49328  eV     1   --> A''            
     e(  5 -  5) =    -20.43675  eV     1   --> A'             
     e(  6 -  6) =    -20.42785  eV     1   --> A'             
     e(  7 -  7) =    -20.42323  eV     1   --> A''            
     e(  8 -  8) =    -20.41516  eV     1   --> A''            
     e(  9 -  9) =     -2.37219  eV     1   --> A'             
     e( 10 - 10) =     -1.27396  eV     1   --> A'             
     e( 11 - 11) =      5.55769  eV     1   --> A''            
     e( 12 - 12) =      9.35850  eV     1   --> A'             
     e( 13 - 13) =      9.53394  eV     1   --> A''            
     e( 14 - 14) =      9.54863  eV     1   --> A'             
     e( 15 - 15) =     10.76574  eV     1   --> A'             
     e( 16 - 16) =     11.33314  eV     1   --> A'             
     e( 17 - 17) =     11.34234  eV     1   --> A'             
     e( 18 - 18) =     12.97451  eV     1   --> A''            
     e( 19 - 19) =     13.01532  eV     1   --> A''            
     e( 20 - 20) =     13.32162  eV     1   --> A'             
     e( 21 - 21) =     13.47594  eV     1   --> A'             
     e( 22 - 22) =     14.39341  eV     1   --> A''            
     e( 23 - 23) =     14.44672  eV     1   --> A''            
     e( 24 - 24) =     14.66100  eV     1   --> A''            
     e( 25 - 25) =     16.41315  eV     1   --> A'             
     e( 26 - 26) =     16.63261  eV     1   --> A'             
     e( 27 - 27) =     17.48132  eV     1   --> A'             
     e( 28 - 28) =     18.17020  eV     1   --> A'             
     e( 29 - 29) =     20.82335  eV     1   --> A'             
     e( 30 - 30) =     21.34410  eV     1   --> A'             
     e( 31 - 31) =     22.52314  eV     1   --> A'             
     e( 32 - 32) =     22.55240  eV     1   --> A''            
     e( 33 - 33) =     23.62413  eV     1   --> A'             
     e( 34 - 34) =     23.93480  eV     1   --> A''            
     e( 35 - 35) =     24.60849  eV     1   --> A'             
     e( 36 - 36) =     24.68631  eV     1   --> A''            
     e( 37 - 37) =     25.39271  eV     1   --> A''            
     e( 38 - 38) =     26.73867  eV     1   --> A''            
     e( 39 - 39) =     27.02847  eV     1   --> A'             
     e( 40 - 40) =     27.18364  eV     1   --> A''            

 **************************************************************************

 **************************************************************************

                    xk=(   0.09000,   0.05196,   0.00000  )

     Band symmetry, C_s (m)     point group:

     e(  1 -  1) =    -44.23642  eV     1   --> A'             
     e(  2 -  2) =    -44.22595  eV     1   --> A''            
     e(  3 -  3) =    -20.64020  eV     1   --> A'             
     e(  4 -  4) =    -20.49287  eV     1   --> A''            
     e(  5 -  5) =    -20.43971  eV     1   --> A'             
     e(  6 -  6) =    -20.42851  eV     1   --> A'             
     e(  7 -  7) =    -20.42596  eV     1   --> A''            
     e(  8 -  8) =    -20.41579  eV     1   --> A''            
     e(  9 -  9) =     -2.34991  eV     1   --> A'             
     e( 10 - 10) =     -1.26523  eV     1   --> A'             
     e( 11 - 11) =      5.58679  eV     1   --> A''            
     e( 12 - 12) =      9.30760  eV     1   --> A'             
     e( 13 - 13) =      9.49434  eV     1   --> A''            
     e( 14 - 14) =      9.54484  eV     1   --> A'             
     e( 15 - 15) =     10.65209  eV     1   --> A'             
     e( 16 - 16) =     11.27744  eV     1   --> A'             
     e( 17 - 17) =     11.33671  eV     1   --> A'             
     e( 18 - 18) =     12.99646  eV     1   --> A''            
     e( 19 - 19) =     13.04064  eV     1   --> A''            
     e( 20 - 20) =     13.34484  eV     1   --> A'             
     e( 21 - 21) =     13.53854  eV     1   --> A'             
     e( 22 - 22) =     14.38726  eV     1   --> A''            
     e( 23 - 23) =     14.45778  eV     1   --> A''            
     e( 24 - 24) =     14.66849  eV     1   --> A''            
     e( 25 - 25) =     16.35673  eV     1   --> A'             
     e( 26 - 26) =     16.61845  eV     1   --> A'             
     e( 27 - 27) =     17.56860  eV     1   --> A'             
     e( 28 - 28) =     18.27414  eV     1   --> A'             
     e( 29 - 29) =     20.79626  eV     1   --> A'             
     e( 30 - 30) =     21.43127  eV     1   --> A'             
     e( 31 - 31) =     22.40985  eV     1   --> A''            
     e( 32 - 32) =     22.56682  eV     1   --> A'             
     e( 33 - 33) =     23.48061  eV     1   --> A'             
     e( 34 - 34) =     23.86228  eV     1   --> A''            
     e( 35 - 35) =     24.61158  eV     1   --> A''            
     e( 36 - 36) =     24.63578  eV     1   --> A'             
     e( 37 - 37) =     25.46535  eV     1   --> A''            
     e( 38 - 38) =     26.74031  eV     1   --> A''            
     e( 39 - 39) =     27.22946  eV     1   --> A'             
     e( 40 - 40) =     27.29011  eV     1   --> A''            

 **************************************************************************

 **************************************************************************

                    xk=(   0.10000,   0.05774,   0.00000  )

     Band symmetry, C_s (m)     point group:

     e(  1 -  1) =    -44.23608  eV     1   --> A'             
     e(  2 -  2) =    -44.22563  eV     1   --> A''            
     e(  3 -  3) =    -20.63937  eV     1   --> A'             
     e(  4 -  4) =    -20.49241  eV     1   --> A''            
     e(  5 -  5) =    -20.44298  eV     1   --> A'             
     e(  6 -  6) =    -20.42925  eV     1   --> A'             
     e(  7 -  7) =    -20.42896  eV     1   --> A''            
     e(  8 -  8) =    -20.41649  eV     1   --> A''            
     e(  9 -  9) =     -2.32514  eV     1   --> A'             
     e( 10 - 10) =     -1.25554  eV     1   --> A'             
     e( 11 - 11) =      5.61912  eV     1   --> A''            
     e( 12 - 12) =      9.25205  eV     1   --> A'             
     e( 13 - 13) =      9.45180  eV     1   --> A''            
     e( 14 - 14) =      9.54039  eV     1   --> A'             
     e( 15 - 15) =     10.52447  eV     1   --> A'             
     e( 16 - 16) =     11.22009  eV     1   --> A'             
     e( 17 - 17) =     11.33913  eV     1   --> A'             
     e( 18 - 18) =     13.02078  eV     1   --> A''            
     e( 19 - 19) =     13.06543  eV     1   --> A''            
     e( 20 - 20) =     13.36748  eV     1   --> A'             
     e( 21 - 21) =     13.60335  eV     1   --> A'             
     e( 22 - 22) =     14.38059  eV     1   --> A''            
     e( 23 - 23) =     14.47175  eV     1   --> A''            
     e( 24 - 24) =     14.67726  eV     1   --> A''            
     e( 25 - 25) =     16.29891  eV     1   --> A'             
     e( 26 - 26) =     16.60429  eV     1   --> A'             
     e( 27 - 27) =     17.66095  eV     1   --> A'             
     e( 28 - 28) =     18.38094  eV     1   --> A'             
     e( 29 - 29) =     20.77358  eV     1   --> A'             
     e( 30 - 30) =     21.52713  eV     1   --> A'             
     e( 31 - 31) =     22.26466  eV     1   --> A''            
     e( 32 - 32) =     22.60969  eV     1   --> A'             
     e( 33 - 33) =     23.34112  eV     1   --> A'             
     e( 34 - 34) =     23.77975  eV     1   --> A''            
     e( 35 - 35) =     24.52912  eV     1   --> A''            
     e( 36 - 36) =     24.66633  eV     1   --> A'             
     e( 37 - 37) =     25.53827  eV     1   --> A''            
     e( 38 - 38) =     26.74455  eV     1   --> A''            
     e( 39 - 39) =     27.40443  eV     1   --> A''            
     e( 40 - 40) =     27.43441  eV     1   --> A'             

 **************************************************************************

 **************************************************************************

                    xk=(   0.11000,   0.06351,   0.00000  )

     Band symmetry, C_s (m)     point group:

     e(  1 -  1) =    -44.23571  eV     1   --> A'             
     e(  2 -  2) =    -44.22528  eV     1   --> A''            
     e(  3 -  3) =    -20.63847  eV     1   --> A'             
     e(  4 -  4) =    -20.49191  eV     1   --> A''            
     e(  5 -  5) =    -20.44654  eV     1   --> A'             
     e(  6 -  6) =    -20.43224  eV     1   --> A''            
     e(  7 -  7) =    -20.43005  eV     1   --> A'             
     e(  8 -  8) =    -20.41725  eV     1   --> A''            
     e(  9 -  9) =     -2.29793  eV     1   --> A'             
     e( 10 - 10) =     -1.24490  eV     1   --> A'             
     e( 11 - 11) =      5.65462  eV     1   --> A''            
     e( 12 - 12) =      9.19223  eV     1   --> A'             
     e( 13 - 13) =      9.40673  eV     1   --> A''            
     e( 14 - 14) =      9.53518  eV     1   --> A'             
     e( 15 - 15) =     10.38636  eV     1   --> A'             
     e( 16 - 16) =     11.16181  eV     1   --> A'             
     e( 17 - 17) =     11.34720  eV     1   --> A'             
     e( 18 - 18) =     13.04740  eV     1   --> A''            
     e( 19 - 19) =     13.08877  eV     1   --> A''            
     e( 20 - 20) =     13.38955  eV     1   --> A'             
     e( 21 - 21) =     13.66956  eV     1   --> A'             
     e( 22 - 22) =     14.37350  eV     1   --> A''            
     e( 23 - 23) =     14.48898  eV     1   --> A''            
     e( 24 - 24) =     14.68750  eV     1   --> A''            
     e( 25 - 25) =     16.24017  eV     1   --> A'             
     e( 26 - 26) =     16.59053  eV     1   --> A'             
     e( 27 - 27) =     17.75698  eV     1   --> A'             
     e( 28 - 28) =     18.48873  eV     1   --> A'             
     e( 29 - 29) =     20.75691  eV     1   --> A'             
     e( 30 - 30) =     21.63128  eV     1   --> A'             
     e( 31 - 31) =     22.11808  eV     1   --> A''            
     e( 32 - 32) =     22.64943  eV     1   --> A'             
     e( 33 - 33) =     23.20870  eV     1   --> A'             
     e( 34 - 34) =     23.68750  eV     1   --> A''            
     e( 35 - 35) =     24.43943  eV     1   --> A''            
     e( 36 - 36) =     24.70015  eV     1   --> A'             
     e( 37 - 37) =     25.61165  eV     1   --> A''            
     e( 38 - 38) =     26.75162  eV     1   --> A''            
     e( 39 - 39) =     27.52484  eV     1   --> A''            
     e( 40 - 40) =     27.64179  eV     1   --> A'             

 **************************************************************************

 **************************************************************************

                    xk=(   0.12000,   0.06928,   0.00000  )

     Band symmetry, C_s (m)     point group:

     e(  1 -  1) =    -44.23532  eV     1   --> A'             
     e(  2 -  2) =    -44.22489  eV     1   --> A''            
     e(  3 -  3) =    -20.63750  eV     1   --> A'             
     e(  4 -  4) =    -20.49137  eV     1   --> A''            
     e(  5 -  5) =    -20.45038  eV     1   --> A'             
     e(  6 -  6) =    -20.43576  eV     1   --> A''            
     e(  7 -  7) =    -20.43091  eV     1   --> A'             
     e(  8 -  8) =    -20.41807  eV     1   --> A''            
     e(  9 -  9) =     -2.26834  eV     1   --> A'             
     e( 10 - 10) =     -1.23333  eV     1   --> A'             
     e( 11 - 11) =      5.69321  eV     1   --> A''            
     e( 12 - 12) =      9.12851  eV     1   --> A'             
     e( 13 - 13) =      9.35952  eV     1   --> A''            
     e( 14 - 14) =      9.52915  eV     1   --> A'             
     e( 15 - 15) =     10.24038  eV     1   --> A'             
     e( 16 - 16) =     11.10323  eV     1   --> A'             
     e( 17 - 17) =     11.35917  eV     1   --> A'             
     e( 18 - 18) =     13.07624  eV     1   --> A''            
     e( 19 - 19) =     13.10979  eV     1   --> A''            
     e( 20 - 20) =     13.41117  eV     1   --> A'             
     e( 21 - 21) =     13.73648  eV     1   --> A'             
     e( 22 - 22) =     14.36607  eV     1   --> A''            
     e( 23 - 23) =     14.50969  eV     1   --> A''            
     e( 24 - 24) =     14.69951  eV     1   --> A''            
     e( 25 - 25) =     16.18092  eV     1   --> A'             
     e( 26 - 26) =     16.57757  eV     1   --> A'             
     e( 27 - 27) =     17.85526  eV     1   --> A'             
     e( 28 - 28) =     18.59551  eV     1   --> A'             
     e( 29 - 29) =     20.74784  eV     1   --> A'             
     e( 30 - 30) =     21.74333  eV     1   --> A'             
     e( 31 - 31) =     21.97103  eV     1   --> A''            
     e( 32 - 32) =     22.68086  eV     1   --> A'             
     e( 33 - 33) =     23.08932  eV     1   --> A'             
     e( 34 - 34) =     23.58596  eV     1   --> A''            
     e( 35 - 35) =     24.34312  eV     1   --> A''            
     e( 36 - 36) =     24.73730  eV     1   --> A'             
     e( 37 - 37) =     25.68560  eV     1   --> A''            
     e( 38 - 38) =     26.76165  eV     1   --> A''            
     e( 39 - 39) =     27.64923  eV     1   --> A''            
     e( 40 - 40) =     27.84979  eV     1   --> A'             

 **************************************************************************

 **************************************************************************

                    xk=(   0.13000,   0.07506,   0.00000  )

     Band symmetry, C_s (m)     point group:

     e(  1 -  1) =    -44.23490  eV     1   --> A'             
     e(  2 -  2) =    -44.22448  eV     1   --> A''            
     e(  3 -  3) =    -20.63646  eV     1   --> A'             
     e(  4 -  4) =    -20.49079  eV     1   --> A''            
     e(  5 -  5) =    -20.45449  eV     1   --> A'             
     e(  6 -  6) =    -20.43953  eV     1   --> A''            
     e(  7 -  7) =    -20.43184  eV     1   --> A'             
     e(  8 -  8) =    -20.41895  eV     1   --> A''            
     e(  9 -  9) =     -2.23642  eV     1   --> A'             
     e( 10 - 10) =     -1.22087  eV     1   --> A'             
     e( 11 - 11) =      5.73480  eV     1   --> A''            
     e( 12 - 12) =      9.06124  eV     1   --> A'             
     e( 13 - 13) =      9.31056  eV     1   --> A''            
     e( 14 - 14) =      9.52222  eV     1   --> A'             
     e( 15 - 15) =     10.08848  eV     1   --> A'             
     e( 16 - 16) =     11.04488  eV     1   --> A'             
     e( 17 - 17) =     11.37384  eV     1   --> A'             
     e( 18 - 18) =     13.10717  eV     1   --> A''            
     e( 19 - 19) =     13.12771  eV     1   --> A''            
     e( 20 - 20) =     13.43257  eV     1   --> A'             
     e( 21 - 21) =     13.80348  eV     1   --> A'             
     e( 22 - 22) =     14.35839  eV     1   --> A''            
     e( 23 - 23) =     14.53386  eV     1   --> A''            
     e( 24 - 24) =     14.71374  eV     1   --> A''            
     e( 25 - 25) =     16.12156  eV     1   --> A'             
     e( 26 - 26) =     16.56581  eV     1   --> A'             
     e( 27 - 27) =     17.95439  eV     1   --> A'             
     e( 28 - 28) =     18.69919  eV     1   --> A'             
     e( 29 - 29) =     20.74794  eV     1   --> A'             
     e( 30 - 30) =     21.82435  eV     1   --> A''            
     e( 31 - 31) =     21.86289  eV     1   --> A'             
     e( 32 - 32) =     22.69051  eV     1   --> A'             
     e( 33 - 33) =     22.99733  eV     1   --> A'             
     e( 34 - 34) =     23.47570  eV     1   --> A''            
     e( 35 - 35) =     24.24075  eV     1   --> A''            
     e( 36 - 36) =     24.77767  eV     1   --> A'             
     e( 37 - 37) =     25.76030  eV     1   --> A''            
     e( 38 - 38) =     26.77464  eV     1   --> A''            
     e( 39 - 39) =     27.77581  eV     1   --> A''            
     e( 40 - 40) =     28.05577  eV     1   --> A'             

 **************************************************************************

 **************************************************************************

                    xk=(   0.14000,   0.08083,   0.00000  )

     Band symmetry, C_s (m)     point group:

     e(  1 -  1) =    -44.23446  eV     1   --> A'             
     e(  2 -  2) =    -44.22406  eV     1   --> A''            
     e(  3 -  3) =    -20.63535  eV     1   --> A'             
     e(  4 -  4) =    -20.49018  eV     1   --> A''            
     e(  5 -  5) =    -20.45884  eV     1   --> A'             
     e(  6 -  6) =    -20.44353  eV     1   --> A''            
     e(  7 -  7) =    -20.43282  eV     1   --> A'             
     e(  8 -  8) =    -20.41988  eV     1   --> A''            
     e(  9 -  9) =     -2.20223  eV     1   --> A'             
     e( 10 - 10) =     -1.20753  eV     1   --> A'             
     e( 11 - 11) =      5.77932  eV     1   --> A''            
     e( 12 - 12) =      8.99079  eV     1   --> A'             
     e( 13 - 13) =      9.26022  eV     1   --> A''            
     e( 14 - 14) =      9.51429  eV     1   --> A'             
     e( 15 - 15) =      9.93216  eV     1   --> A'             
     e( 16 - 16) =     10.98722  eV     1   --> A'             
     e( 17 - 17) =     11.39029  eV     1   --> A'             
     e( 18 - 18) =     13.14009  eV     1   --> A''            
     e( 19 - 19) =     13.14189  eV     1   --> A''            
     e( 20 - 20) =     13.45405  eV     1   --> A'             
     e( 21 - 21) =     13.87004  eV     1   --> A'             
     e( 22 - 22) =     14.35058  eV     1   --> A''            
     e( 23 - 23) =     14.56113  eV     1   --> A''            
     e( 24 - 24) =     14.73087  eV     1   --> A''            
     e( 25 - 25) =     16.06246  eV     1   --> A'             
     e( 26 - 26) =     16.55557  eV     1   --> A'             
     e( 27 - 27) =     18.05292  eV     1   --> A'             
     e( 28 - 28) =     18.79757  eV     1   --> A'             
     e( 29 - 29) =     20.75871  eV     1   --> A'             
     e( 30 - 30) =     21.67869  eV     1   --> A''            
     e( 31 - 31) =     21.98960  eV     1   --> A'             
     e( 32 - 32) =     22.65549  eV     1   --> A'             
     e( 33 - 33) =     22.95666  eV     1   --> A'             
     e( 34 - 34) =     23.35735  eV     1   --> A''            
     e( 35 - 35) =     24.13296  eV     1   --> A''            
     e( 36 - 36) =     24.82128  eV     1   --> A'             
     e( 37 - 37) =     25.83582  eV     1   --> A''            
     e( 38 - 38) =     26.79055  eV     1   --> A''            
     e( 39 - 39) =     27.90275  eV     1   --> A''            
     e( 40 - 40) =     28.25553  eV     1   --> A'             

 **************************************************************************

 **************************************************************************

                    xk=(   0.15000,   0.08660,   0.00000  )

     Band symmetry, C_s (m)     point group:

     e(  1 -  1) =    -44.23398  eV     1   --> A'             
     e(  2 -  2) =    -44.22360  eV     1   --> A''            
     e(  3 -  3) =    -20.63419  eV     1   --> A'             
     e(  4 -  4) =    -20.48954  eV     1   --> A''            
     e(  5 -  5) =    -20.46342  eV     1   --> A'             
     e(  6 -  6) =    -20.44773  eV     1   --> A''            
     e(  7 -  7) =    -20.43385  eV     1   --> A'             
     e(  8 -  8) =    -20.42085  eV     1   --> A''            
     e(  9 -  9) =     -2.16585  eV     1   --> A'             
     e( 10 - 10) =     -1.19335  eV     1   --> A'             
     e( 11 - 11) =      5.82666  eV     1   --> A''            
     e( 12 - 12) =      8.91748  eV     1   --> A'             
     e( 13 - 13) =      9.20882  eV     1   --> A''            
     e( 14 - 14) =      9.50530  eV     1   --> A'             
     e( 15 - 15) =      9.77264  eV     1   --> A'             
     e( 16 - 16) =     10.93064  eV     1   --> A'             
     e( 17 - 17) =     11.40782  eV     1   --> A'             
     e( 18 - 18) =     13.15184  eV     1   --> A''            
     e( 19 - 19) =     13.17486  eV     1   --> A''            
     e( 20 - 20) =     13.47592  eV     1   --> A'             
     e( 21 - 21) =     13.93568  eV     1   --> A'             
     e( 22 - 22) =     14.34278  eV     1   --> A''            
     e( 23 - 23) =     14.59061  eV     1   --> A''            
     e( 24 - 24) =     14.75198  eV     1   --> A''            
     e( 25 - 25) =     16.00399  eV     1   --> A'             
     e( 26 - 26) =     16.54719  eV     1   --> A'             
     e( 27 - 27) =     18.14945  eV     1   --> A'             
     e( 28 - 28) =     18.88850  eV     1   --> A'             
     e( 29 - 29) =     20.78150  eV     1   --> A'             
     e( 30 - 30) =     21.53466  eV     1   --> A''            
     e( 31 - 31) =     22.12313  eV     1   --> A'             
     e( 32 - 32) =     22.57717  eV     1   --> A'             
     e( 33 - 33) =     22.96718  eV     1   --> A'             
     e( 34 - 34) =     23.23163  eV     1   --> A''            
     e( 35 - 35) =     24.02043  eV     1   --> A''            
     e( 36 - 36) =     24.86821  eV     1   --> A'             
     e( 37 - 37) =     25.91211  eV     1   --> A''            
     e( 38 - 38) =     26.80942  eV     1   --> A''            
     e( 39 - 39) =     28.02831  eV     1   --> A''            
     e( 40 - 40) =     28.44170  eV     1   --> A'             

 **************************************************************************

 **************************************************************************

                    xk=(   0.16000,   0.09238,   0.00000  )

     Band symmetry, C_s (m)     point group:

     e(  1 -  1) =    -44.23349  eV     1   --> A'             
     e(  2 -  2) =    -44.22313  eV     1   --> A''            
     e(  3 -  3) =    -20.63297  eV     1   --> A'             
     e(  4 -  4) =    -20.48887  eV     1   --> A''            
     e(  5 -  5) =    -20.46820  eV     1   --> A'             
     e(  6 -  6) =    -20.45214  eV     1   --> A''            
     e(  7 -  7) =    -20.43493  eV     1   --> A'             
     e(  8 -  8) =    -20.42188  eV     1   --> A''            
     e(  9 -  9) =     -2.12735  eV     1   --> A'             
     e( 10 - 10) =     -1.17836  eV     1   --> A'             
     e( 11 - 11) =      5.87670  eV     1   --> A''            
     e( 12 - 12) =      8.84162  eV     1   --> A'             
     e( 13 - 13) =      9.15669  eV     1   --> A''            
     e( 14 - 14) =      9.49518  eV     1   --> A'             
     e( 15 - 15) =      9.61095  eV     1   --> A'             
     e( 16 - 16) =     10.87550  eV     1   --> A'             
     e( 17 - 17) =     11.42582  eV     1   --> A'             
     e( 18 - 18) =     13.15723  eV     1   --> A''            
     e( 19 - 19) =     13.21130  eV     1   --> A''            
     e( 20 - 20) =     13.49855  eV     1   --> A'             
     e( 21 - 21) =     13.99998  eV     1   --> A'             
     e( 22 - 22) =     14.33510  eV     1   --> A''            
     e( 23 - 23) =     14.62085  eV     1   --> A''            
     e( 24 - 24) =     14.77851  eV     1   --> A''            
     e( 25 - 25) =     15.94651  eV     1   --> A'             
     e( 26 - 26) =     16.54096  eV     1   --> A'             
     e( 27 - 27) =     18.24258  eV     1   --> A'             
     e( 28 - 28) =     18.96996  eV     1   --> A'             
     e( 29 - 29) =     20.81726  eV     1   --> A'             
     e( 30 - 30) =     21.39267  eV     1   --> A''            
     e( 31 - 31) =     22.26309  eV     1   --> A'             
     e( 32 - 32) =     22.48126  eV     1   --> A'             
     e( 33 - 33) =     23.00451  eV     1   --> A'             
     e( 34 - 34) =     23.09925  eV     1   --> A''            
     e( 35 - 35) =     23.90371  eV     1   --> A''            
     e( 36 - 36) =     24.91834  eV     1   --> A'             
     e( 37 - 37) =     25.98899  eV     1   --> A''            
     e( 38 - 38) =     26.83075  eV     1   --> A''            
     e( 39 - 39) =     28.15076  eV     1   --> A''            
     e( 40 - 40) =     28.60236  eV     1   --> A'             

 **************************************************************************

 **************************************************************************

                    xk=(   0.17000,   0.09815,   0.00000  )

     Band symmetry, C_s (m)     point group:

     e(  1 -  1) =    -44.23298  eV     1   --> A'             
     e(  2 -  2) =    -44.22264  eV     1   --> A''            
     e(  3 -  3) =    -20.63171  eV     1   --> A'             
     e(  4 -  4) =    -20.48817  eV     1   --> A''            
     e(  5 -  5) =    -20.47318  eV     1   --> A'             
     e(  6 -  6) =    -20.45671  eV     1   --> A''            
     e(  7 -  7) =    -20.43605  eV     1   --> A'             
     e(  8 -  8) =    -20.42295  eV     1   --> A''            
     e(  9 -  9) =     -2.08683  eV     1   --> A'             
     e( 10 - 10) =     -1.16260  eV     1   --> A'             
     e( 11 - 11) =      5.92934  eV     1   --> A''            
     e( 12 - 12) =      8.76343  eV     1   --> A'             
     e( 13 - 13) =      9.10411  eV     1   --> A''            
     e( 14 - 14) =      9.44798  eV     1   --> A'             
     e( 15 - 15) =      9.48383  eV     1   --> A'             
     e( 16 - 16) =     10.82207  eV     1   --> A'             
     e( 17 - 17) =     11.44375  eV     1   --> A'             
     e( 18 - 18) =     13.15795  eV     1   --> A''            
     e( 19 - 19) =     13.24925  eV     1   --> A''            
     e( 20 - 20) =     13.52232  eV     1   --> A'             
     e( 21 - 21) =     14.06258  eV     1   --> A'             
     e( 22 - 22) =     14.32774  eV     1   --> A''            
     e( 23 - 23) =     14.65015  eV     1   --> A''            
     e( 24 - 24) =     14.81208  eV     1   --> A''            
     e( 25 - 25) =     15.89037  eV     1   --> A'             
     e( 26 - 26) =     16.53710  eV     1   --> A'             
     e( 27 - 27) =     18.33102  eV     1   --> A'             
     e( 28 - 28) =     19.04024  eV     1   --> A'             
     e( 29 - 29) =     20.86650  eV     1   --> A'             
     e( 30 - 30) =     21.25318  eV     1   --> A''            
     e( 31 - 31) =     22.38308  eV     1   --> A'             
     e( 32 - 32) =     22.40926  eV     1   --> A'             
     e( 33 - 33) =     22.96095  eV     1   --> A''            
     e( 34 - 34) =     23.05490  eV     1   --> A'             
     e( 35 - 35) =     23.78341  eV     1   --> A''            
     e( 36 - 36) =     24.97168  eV     1   --> A'             
     e( 37 - 37) =     26.06621  eV     1   --> A''            
     e( 38 - 38) =     26.85452  eV     1   --> A''            
     e( 39 - 39) =     28.26850  eV     1   --> A''            
     e( 40 - 40) =     28.72458  eV     1   --> A'             

 **************************************************************************

 **************************************************************************

                    xk=(   0.18000,   0.10392,   0.00000  )

     Band symmetry, C_s (m)     point group:

     e(  1 -  1) =    -44.23245  eV     1   --> A'             
     e(  2 -  2) =    -44.22213  eV     1   --> A''            
     e(  3 -  3) =    -20.63040  eV     1   --> A'             
     e(  4 -  4) =    -20.48745  eV     1   --> A''            
     e(  5 -  5) =    -20.47832  eV     1   --> A'             
     e(  6 -  6) =    -20.46144  eV     1   --> A''            
     e(  7 -  7) =    -20.43721  eV     1   --> A'             
     e(  8 -  8) =    -20.42406  eV     1   --> A''            
     e(  9 -  9) =     -2.04437  eV     1   --> A'             
     e( 10 - 10) =     -1.14609  eV     1   --> A'             
     e( 11 - 11) =      5.98444  eV     1   --> A''            
     e( 12 - 12) =      8.68309  eV     1   --> A'             
     e( 13 - 13) =      9.05138  eV     1   --> A''            
     e( 14 - 14) =      9.28460  eV     1   --> A'             
     e( 15 - 15) =      9.47123  eV     1   --> A'             
     e( 16 - 16) =     10.77061  eV     1   --> A'             
     e( 17 - 17) =     11.46112  eV     1   --> A'             
     e( 18 - 18) =     13.15398  eV     1   --> A''            
     e( 19 - 19) =     13.28848  eV     1   --> A''            
     e( 20 - 20) =     13.54761  eV     1   --> A'             
     e( 21 - 21) =     14.12319  eV     1   --> A'             
     e( 22 - 22) =     14.32087  eV     1   --> A''            
     e( 23 - 23) =     14.67714  eV     1   --> A''            
     e( 24 - 24) =     14.85373  eV     1   --> A''            
     e( 25 - 25) =     15.83592  eV     1   --> A'             
     e( 26 - 26) =     16.53582  eV     1   --> A'             
     e( 27 - 27) =     18.41358  eV     1   --> A'             
     e( 28 - 28) =     19.09809  eV     1   --> A'             
     e( 29 - 29) =     20.92901  eV     1   --> A'             
     e( 30 - 30) =     21.11655  eV     1   --> A''            
     e( 31 - 31) =     22.28874  eV     1   --> A'             
     e( 32 - 32) =     22.56130  eV     1   --> A'             
     e( 33 - 33) =     22.81748  eV     1   --> A''            
     e( 34 - 34) =     23.11385  eV     1   --> A'             
     e( 35 - 35) =     23.66012  eV     1   --> A''            
     e( 36 - 36) =     25.02819  eV     1   --> A'             
     e( 37 - 37) =     26.14342  eV     1   --> A''            
     e( 38 - 38) =     26.88052  eV     1   --> A''            
     e( 39 - 39) =     28.37996  eV     1   --> A''            
     e( 40 - 40) =     28.80554  eV     1   --> A'             

 **************************************************************************

 **************************************************************************

                    xk=(   0.19000,   0.10970,   0.00000  )

     Band symmetry, C_s (m)     point group:

     e(  1 -  1) =    -44.23190  eV     1   --> A'             
     e(  2 -  2) =    -44.22161  eV     1   --> A''            
     e(  3 -  3) =    -20.62905  eV     1   --> A'             
     e(  4 -  4) =    -20.48672  eV     1   --> A''            
     e(  5 -  5) =    -20.48362  eV     1   --> A'             
     e(  6 -  6) =    -20.46630  eV     1   --> A''            
     e(  7 -  7) =    -20.43841  eV     1   --> A'             
     e(  8 -  8) =    -20.42521  eV     1   --> A''            
     e(  9 -  9) =     -2.00007  eV     1   --> A'             
     e( 10 - 10) =     -1.12887  eV     1   --> A'             
     e( 11 - 11) =      6.04186  eV     1   --> A''            
     e( 12 - 12) =      8.60062  eV     1   --> A'             
     e( 13 - 13) =      8.99873  eV     1   --> A''            
     e( 14 - 14) =      9.12172  eV     1   --> A'             
     e( 15 - 15) =      9.45730  eV     1   --> A'             
     e( 16 - 16) =     10.72133  eV     1   --> A'             
     e( 17 - 17) =     11.47748  eV     1   --> A'             
     e( 18 - 18) =     13.14547  eV     1   --> A''            
     e( 19 - 19) =     13.32872  eV     1   --> A''            
     e( 20 - 20) =     13.57482  eV     1   --> A'             
     e( 21 - 21) =     14.18154  eV     1   --> A'             
     e( 22 - 22) =     14.31472  eV     1   --> A''            
     e( 23 - 23) =     14.70145  eV     1   --> A''            
     e( 24 - 24) =     14.90346  eV     1   --> A''            
     e( 25 - 25) =     15.78346  eV     1   --> A'             
     e( 26 - 26) =     16.53724  eV     1   --> A'             
     e( 27 - 27) =     18.48932  eV     1   --> A'             
     e( 28 - 28) =     19.14273  eV     1   --> A'             
     e( 29 - 29) =     20.98312  eV     1   --> A''            
     e( 30 - 30) =     21.00380  eV     1   --> A'             
     e( 31 - 31) =     22.20106  eV     1   --> A'             
     e( 32 - 32) =     22.66957  eV     1   --> A''            
     e( 33 - 33) =     22.71894  eV     1   --> A'             
     e( 34 - 34) =     23.18029  eV     1   --> A'             
     e( 35 - 35) =     23.53434  eV     1   --> A''            
     e( 36 - 36) =     25.08775  eV     1   --> A'             
     e( 37 - 37) =     26.22022  eV     1   --> A''            
     e( 38 - 38) =     26.90851  eV     1   --> A''            
     e( 39 - 39) =     28.48367  eV     1   --> A''            
     e( 40 - 40) =     28.85437  eV     1   --> A'             

 **************************************************************************

 **************************************************************************

                    xk=(   0.20000,   0.11547,   0.00000  )

     Band symmetry, C_s (m)     point group:

     e(  1 -  1) =    -44.23133  eV     1   --> A'             
     e(  2 -  2) =    -44.22106  eV     1   --> A''            
     e(  3 -  3) =    -20.62766  eV     1   --> A'             
     e(  4 -  4) =    -20.48903  eV     1   --> A'             
     e(  5 -  5) =    -20.48597  eV     1   --> A''            
     e(  6 -  6) =    -20.47127  eV     1   --> A''            
     e(  7 -  7) =    -20.43964  eV     1   --> A'             
     e(  8 -  8) =    -20.42637  eV     1   --> A''            
     e(  9 -  9) =     -1.95404  eV     1   --> A'             
     e( 10 - 10) =     -1.11098  eV     1   --> A'             
     e( 11 - 11) =      6.10147  eV     1   --> A''            
     e( 12 - 12) =      8.51582  eV     1   --> A'             
     e( 13 - 13) =      8.94642  eV     1   --> A''            
     e( 14 - 14) =      8.96038  eV     1   --> A'             
     e( 15 - 15) =      9.44205  eV     1   --> A'             
     e( 16 - 16) =     10.67438  eV     1   --> A'             
     e( 17 - 17) =     11.49241  eV     1   --> A'             
     e( 18 - 18) =     13.13265  eV     1   --> A''            
     e( 19 - 19) =     13.36972  eV     1   --> A''            
     e( 20 - 20) =     13.60433  eV     1   --> A'             
     e( 21 - 21) =     14.23744  eV     1   --> A'             
     e( 22 - 22) =     14.30955  eV     1   --> A''            
     e( 23 - 23) =     14.72349  eV     1   --> A''            
     e( 24 - 24) =     14.96038  eV     1   --> A''            
     e( 25 - 25) =     15.73331  eV     1   --> A'             
     e( 26 - 26) =     16.54148  eV     1   --> A'             
     e( 27 - 27) =     18.55755  eV     1   --> A'             
     e( 28 - 28) =     19.17385  eV     1   --> A'             
     e( 29 - 29) =     20.85319  eV     1   --> A''            
     e( 30 - 30) =     21.08914  eV     1   --> A'             
     e( 31 - 31) =     22.12179  eV     1   --> A'             
     e( 32 - 32) =     22.51793  eV     1   --> A''            
     e( 33 - 33) =     22.88193  eV     1   --> A'             
     e( 34 - 34) =     23.25437  eV     1   --> A'             
     e( 35 - 35) =     23.40663  eV     1   --> A''            
     e( 36 - 36) =     25.15039  eV     1   --> A'             
     e( 37 - 37) =     26.29616  eV     1   --> A''            
     e( 38 - 38) =     26.93833  eV     1   --> A''            
     e( 39 - 39) =     28.57829  eV     1   --> A''            
     e( 40 - 40) =     28.88159  eV     1   --> A'             

 **************************************************************************

 **************************************************************************

                    xk=(   0.21000,   0.12124,   0.00000  )

     Band symmetry, C_s (m)     point group:

     e(  1 -  1) =    -44.23076  eV     1   --> A'             
     e(  2 -  2) =    -44.22051  eV     1   --> A''            
     e(  3 -  3) =    -20.62625  eV     1   --> A'             
     e(  4 -  4) =    -20.49455  eV     1   --> A'             
     e(  5 -  5) =    -20.48525  eV     1   --> A''            
     e(  6 -  6) =    -20.47630  eV     1   --> A''            
     e(  7 -  7) =    -20.44089  eV     1   --> A'             
     e(  8 -  8) =    -20.42757  eV     1   --> A''            
     e(  9 -  9) =     -1.90642  eV     1   --> A'             
     e( 10 - 10) =     -1.09247  eV     1   --> A'             
     e( 11 - 11) =      6.16307  eV     1   --> A''            
     e( 12 - 12) =      8.42809  eV     1   --> A'             
     e( 13 - 13) =      8.80194  eV     1   --> A'             
     e( 14 - 14) =      8.89466  eV     1   --> A''            
     e( 15 - 15) =      9.42545  eV     1   --> A'             
     e( 16 - 16) =     10.62991  eV     1   --> A'             
     e( 17 - 17) =     11.50554  eV     1   --> A'             
     e( 18 - 18) =     13.11581  eV     1   --> A''            
     e( 19 - 19) =     13.41109  eV     1   --> A''            
     e( 20 - 20) =     13.63650  eV     1   --> A'             
     e( 21 - 21) =     14.29073  eV     1   --> A'             
     e( 22 - 22) =     14.30565  eV     1   --> A''            
     e( 23 - 23) =     14.74392  eV     1   --> A''            
     e( 24 - 24) =     15.02328  eV     1   --> A''            
     e( 25 - 25) =     15.68571  eV     1   --> A'             
     e( 26 - 26) =     16.54854  eV     1   --> A'             
     e( 27 - 27) =     18.61782  eV     1   --> A'             
     e( 28 - 28) =     19.19149  eV     1   --> A'             
     e( 29 - 29) =     20.72702  eV     1   --> A''            
     e( 30 - 30) =     21.18242  eV     1   --> A'             
     e( 31 - 31) =     22.05229  eV     1   --> A'             
     e( 32 - 32) =     22.36323  eV     1   --> A''            
     e( 33 - 33) =     23.05002  eV     1   --> A'             
     e( 34 - 34) =     23.27740  eV     1   --> A''            
     e( 35 - 35) =     23.33667  eV     1   --> A'             
     e( 36 - 36) =     25.21593  eV     1   --> A'             
     e( 37 - 37) =     26.37072  eV     1   --> A''            
     e( 38 - 38) =     26.96966  eV     1   --> A''            
     e( 39 - 39) =     28.66259  eV     1   --> A''            
     e( 40 - 40) =     28.89361  eV     1   --> A'             

 **************************************************************************

 **************************************************************************

                    xk=(   0.22000,   0.12702,   0.00000  )

     Band symmetry, C_s (m)     point group:

     e(  1 -  1) =    -44.23018  eV     1   --> A'             
     e(  2 -  2) =    -44.21995  eV     1   --> A''            
     e(  3 -  3) =    -20.62482  eV     1   --> A'             
     e(  4 -  4) =    -20.50016  eV     1   --> A'             
     e(  5 -  5) =    -20.48472  eV     1   --> A''            
     e(  6 -  6) =    -20.48120  eV     1   --> A''            
     e(  7 -  7) =    -20.44217  eV     1   --> A'             
     e(  8 -  8) =    -20.42878  eV     1   --> A''            
     e(  9 -  9) =     -1.85732  eV     1   --> A'             
     e( 10 - 10) =     -1.07337  eV     1   --> A'             
     e( 11 - 11) =      6.22649  eV     1   --> A''            
     e( 12 - 12) =      8.33612  eV     1   --> A'             
     e( 13 - 13) =      8.64846  eV     1   --> A'             
     e( 14 - 14) =      8.84366  eV     1   --> A''            
     e( 15 - 15) =      9.40754  eV     1   --> A'             
     e( 16 - 16) =     10.58798  eV     1   --> A'             
     e( 17 - 17) =     11.51651  eV     1   --> A'             
     e( 18 - 18) =     13.09527  eV     1   --> A''            
     e( 19 - 19) =     13.45245  eV     1   --> A''            
     e( 20 - 20) =     13.67167  eV     1   --> A'             
     e( 21 - 21) =     14.30338  eV     1   --> A''            
     e( 22 - 22) =     14.34130  eV     1   --> A'             
     e( 23 - 23) =     14.76336  eV     1   --> A''            
     e( 24 - 24) =     15.09100  eV     1   --> A''            
     e( 25 - 25) =     15.64090  eV     1   --> A'             
     e( 26 - 26) =     16.55843  eV     1   --> A'             
     e( 27 - 27) =     18.67005  eV     1   --> A'             
     e( 28 - 28) =     19.19596  eV     1   --> A'             
     e( 29 - 29) =     20.60485  eV     1   --> A''            
     e( 30 - 30) =     21.27998  eV     1   --> A'             
     e( 31 - 31) =     21.99432  eV     1   --> A'             
     e( 32 - 32) =     22.20615  eV     1   --> A''            
     e( 33 - 33) =     23.14713  eV     1   --> A''            
     e( 34 - 34) =     23.22297  eV     1   --> A'             
     e( 35 - 35) =     23.42796  eV     1   --> A'             
     e( 36 - 36) =     25.28427  eV     1   --> A'             
     e( 37 - 37) =     26.44341  eV     1   --> A''            
     e( 38 - 38) =     27.00232  eV     1   --> A''            
     e( 39 - 39) =     28.73557  eV     1   --> A''            
     e( 40 - 40) =     28.89437  eV     1   --> A'             

 **************************************************************************

 **************************************************************************

                    xk=(   0.23000,   0.13279,   0.00000  )

     Band symmetry, C_s (m)     point group:

     e(  1 -  1) =    -44.22962  eV     1   --> A'             
     e(  2 -  2) =    -44.21939  eV     1   --> A''            
     e(  3 -  3) =    -20.62338  eV     1   --> A'             
     e(  4 -  4) =    -20.50585  eV     1   --> A'             
     e(  5 -  5) =    -20.48719  eV     1   --> A''            
     e(  6 -  6) =    -20.48315  eV     1   --> A''            
     e(  7 -  7) =    -20.44346  eV     1   --> A'             
     e(  8 -  8) =    -20.43000  eV     1   --> A''            
     e(  9 -  9) =     -1.80689  eV     1   --> A'             
     e( 10 - 10) =     -1.05372  eV     1   --> A'             
     e( 11 - 11) =      6.29155  eV     1   --> A''            
     e( 12 - 12) =      8.23747  eV     1   --> A'             
     e( 13 - 13) =      8.50302  eV     1   --> A'             
     e( 14 - 14) =      8.79362  eV     1   --> A''            
     e( 15 - 15) =      9.38836  eV     1   --> A'             
     e( 16 - 16) =     10.54865  eV     1   --> A'             
     e( 17 - 17) =     11.52505  eV     1   --> A'             
     e( 18 - 18) =     13.07134  eV     1   --> A''            
     e( 19 - 19) =     13.49332  eV     1   --> A''            
     e( 20 - 20) =     13.71012  eV     1   --> A'             
     e( 21 - 21) =     14.30313  eV     1   --> A''            
     e( 22 - 22) =     14.38910  eV     1   --> A'             
     e( 23 - 23) =     14.78223  eV     1   --> A''            
     e( 24 - 24) =     15.16256  eV     1   --> A''            
     e( 25 - 25) =     15.59909  eV     1   --> A'             
     e( 26 - 26) =     16.57105  eV     1   --> A'             
     e( 27 - 27) =     18.71441  eV     1   --> A'             
     e( 28 - 28) =     19.18784  eV     1   --> A'             
     e( 29 - 29) =     20.48687  eV     1   --> A''            
     e( 30 - 30) =     21.37620  eV     1   --> A'             
     e( 31 - 31) =     21.95119  eV     1   --> A'             
     e( 32 - 32) =     22.04731  eV     1   --> A''            
     e( 33 - 33) =     23.01623  eV     1   --> A''            
     e( 34 - 34) =     23.40054  eV     1   --> A'             
     e( 35 - 35) =     23.52888  eV     1   --> A'             
     e( 36 - 36) =     25.35521  eV     1   --> A'             
     e( 37 - 37) =     26.51368  eV     1   --> A''            
     e( 38 - 38) =     27.03607  eV     1   --> A''            
     e( 39 - 39) =     28.79644  eV     1   --> A''            
     e( 40 - 40) =     28.88632  eV     1   --> A'             

 **************************************************************************

 **************************************************************************

                    xk=(   0.24000,   0.13856,   0.00000  )

     Band symmetry, C_s (m)     point group:

     e(  1 -  1) =    -44.22902  eV     1   --> A'             
     e(  2 -  2) =    -44.21881  eV     1   --> A''            
     e(  3 -  3) =    -20.62192  eV     1   --> A'             
     e(  4 -  4) =    -20.51155  eV     1   --> A'             
     e(  5 -  5) =    -20.49224  eV     1   --> A''            
     e(  6 -  6) =    -20.48256  eV     1   --> A''            
     e(  7 -  7) =    -20.44476  eV     1   --> A'             
     e(  8 -  8) =    -20.43124  eV     1   --> A''            
     e(  9 -  9) =     -1.75530  eV     1   --> A'             
     e( 10 - 10) =     -1.03356  eV     1   --> A'             
     e( 11 - 11) =      6.35802  eV     1   --> A''            
     e( 12 - 12) =      8.12872  eV     1   --> A'             
     e( 13 - 13) =      8.36975  eV     1   --> A'             
     e( 14 - 14) =      8.74474  eV     1   --> A''            
     e( 15 - 15) =      9.36800  eV     1   --> A'             
     e( 16 - 16) =     10.51194  eV     1   --> A'             
     e( 17 - 17) =     11.53094  eV     1   --> A'             
     e( 18 - 18) =     13.04440  eV     1   --> A''            
     e( 19 - 19) =     13.53317  eV     1   --> A''            
     e( 20 - 20) =     13.75215  eV     1   --> A'             
     e( 21 - 21) =     14.30536  eV     1   --> A''            
     e( 22 - 22) =     14.43412  eV     1   --> A'             
     e( 23 - 23) =     14.80078  eV     1   --> A''            
     e( 24 - 24) =     15.23713  eV     1   --> A''            
     e( 25 - 25) =     15.56042  eV     1   --> A'             
     e( 26 - 26) =     16.58628  eV     1   --> A'             
     e( 27 - 27) =     18.75113  eV     1   --> A'             
     e( 28 - 28) =     19.16807  eV     1   --> A'             
     e( 29 - 29) =     20.37330  eV     1   --> A''            
     e( 30 - 30) =     21.46159  eV     1   --> A'             
     e( 31 - 31) =     21.88735  eV     1   --> A''            
     e( 32 - 32) =     21.92985  eV     1   --> A'             
     e( 33 - 33) =     22.88512  eV     1   --> A''            
     e( 34 - 34) =     23.58256  eV     1   --> A'             
     e( 35 - 35) =     23.64008  eV     1   --> A'             
     e( 36 - 36) =     25.42866  eV     1   --> A'             
     e( 37 - 37) =     26.58103  eV     1   --> A''            
     e( 38 - 38) =     27.07070  eV     1   --> A''            
     e( 39 - 39) =     28.84485  eV     1   --> A''            
     e( 40 - 40) =     28.87142  eV     1   --> A'             

 **************************************************************************

 **************************************************************************

                    xk=(   0.25000,   0.14434,   0.00000  )

     Band symmetry, C_s (m)     point group:

     e(  1 -  1) =    -44.22843  eV     1   --> A'             
     e(  2 -  2) =    -44.21825  eV     1   --> A''            
     e(  3 -  3) =    -20.62045  eV     1   --> A'             
     e(  4 -  4) =    -20.51727  eV     1   --> A'             
     e(  5 -  5) =    -20.49747  eV     1   --> A''            
     e(  6 -  6) =    -20.48179  eV     1   --> A''            
     e(  7 -  7) =    -20.44606  eV     1   --> A'             
     e(  8 -  8) =    -20.43247  eV     1   --> A''            
     e(  9 -  9) =     -1.70271  eV     1   --> A'             
     e( 10 - 10) =     -1.01293  eV     1   --> A'             
     e( 11 - 11) =      6.42569  eV     1   --> A''            
     e( 12 - 12) =      8.00738  eV     1   --> A'             
     e( 13 - 13) =      8.25172  eV     1   --> A'             
     e( 14 - 14) =      8.69718  eV     1   --> A''            
     e( 15 - 15) =      9.34655  eV     1   --> A'             
     e( 16 - 16) =     10.47780  eV     1   --> A'             
     e( 17 - 17) =     11.53402  eV     1   --> A'             
     e( 18 - 18) =     13.01473  eV     1   --> A''            
     e( 19 - 19) =     13.57142  eV     1   --> A''            
     e( 20 - 20) =     13.79792  eV     1   --> A'             
     e( 21 - 21) =     14.31055  eV     1   --> A''            
     e( 22 - 22) =     14.47638  eV     1   --> A'             
     e( 23 - 23) =     14.81920  eV     1   --> A''            
     e( 24 - 24) =     15.31400  eV     1   --> A''            
     e( 25 - 25) =     15.52502  eV     1   --> A'             
     e( 26 - 26) =     16.60395  eV     1   --> A'             
     e( 27 - 27) =     18.78032  eV     1   --> A'             
     e( 28 - 28) =     19.13805  eV     1   --> A'             
     e( 29 - 29) =     20.26430  eV     1   --> A''            
     e( 30 - 30) =     21.52154  eV     1   --> A'             
     e( 31 - 31) =     21.72687  eV     1   --> A''            
     e( 32 - 32) =     21.94219  eV     1   --> A'             
     e( 33 - 33) =     22.75416  eV     1   --> A''            
     e( 34 - 34) =     23.76175  eV     1   --> A'             
     e( 35 - 35) =     23.76878  eV     1   --> A'             
     e( 36 - 36) =     25.50433  eV     1   --> A'             
     e( 37 - 37) =     26.64492  eV     1   --> A''            
     e( 38 - 38) =     27.10598  eV     1   --> A''            
     e( 39 - 39) =     28.85157  eV     1   --> A'             
     e( 40 - 40) =     28.88071  eV     1   --> A''            

 **************************************************************************

 **************************************************************************

                    xk=(   0.26000,   0.15011,   0.00000  )

     Band symmetry, C_s (m)     point group:

     e(  1 -  1) =    -44.22784  eV     1   --> A'             
     e(  2 -  2) =    -44.21768  eV     1   --> A''            
     e(  3 -  3) =    -20.61901  eV     1   --> A'             
     e(  4 -  4) =    -20.52298  eV     1   --> A'             
     e(  5 -  5) =    -20.50272  eV     1   --> A''            
     e(  6 -  6) =    -20.48100  eV     1   --> A''            
     e(  7 -  7) =    -20.44736  eV     1   --> A'             
     e(  8 -  8) =    -20.43371  eV     1   --> A''            
     e(  9 -  9) =     -1.64931  eV     1   --> A'             
     e( 10 - 10) =     -0.99187  eV     1   --> A'             
     e( 11 - 11) =      6.49432  eV     1   --> A''            
     e( 12 - 12) =      7.87480  eV     1   --> A'             
     e( 13 - 13) =      8.14813  eV     1   --> A'             
     e( 14 - 14) =      8.65113  eV     1   --> A''            
     e( 15 - 15) =      9.32414  eV     1   --> A'             
     e( 16 - 16) =     10.44620  eV     1   --> A'             
     e( 17 - 17) =     11.53422  eV     1   --> A'             
     e( 18 - 18) =     12.98267  eV     1   --> A''            
     e( 19 - 19) =     13.60746  eV     1   --> A''            
     e( 20 - 20) =     13.84759  eV     1   --> A'             
     e( 21 - 21) =     14.31923  eV     1   --> A''            
     e( 22 - 22) =     14.51595  eV     1   --> A'             
     e( 23 - 23) =     14.83757  eV     1   --> A''            
     e( 24 - 24) =     15.39257  eV     1   --> A''            
     e( 25 - 25) =     15.49296  eV     1   --> A'             
     e( 26 - 26) =     16.62384  eV     1   --> A'             
     e( 27 - 27) =     18.80147  eV     1   --> A'             
     e( 28 - 28) =     19.10005  eV     1   --> A'             
     e( 29 - 29) =     20.15996  eV     1   --> A''            
     e( 30 - 30) =     21.54489  eV     1   --> A'             
     e( 31 - 31) =     21.56644  eV     1   --> A''            
     e( 32 - 32) =     21.99670  eV     1   --> A'             
     e( 33 - 33) =     22.62375  eV     1   --> A''            
     e( 34 - 34) =     23.89395  eV     1   --> A'             
     e( 35 - 35) =     23.95901  eV     1   --> A'             
     e( 36 - 36) =     25.58205  eV     1   --> A'             
[...]

 **************************************************************************

                    xk=(   0.37664,   0.50225,   0.25043  )

     zone border point and non-symmorphic group 
     symmetry decomposition not available

 **************************************************************************

 **************************************************************************

                    xk=(   0.37331,   0.50802,   0.25043  )

     zone border point and non-symmorphic group 
     symmetry decomposition not available

 **************************************************************************

 **************************************************************************

                    xk=(   0.36997,   0.51380,   0.25043  )

     zone border point and non-symmorphic group 
     symmetry decomposition not available

 **************************************************************************

 **************************************************************************

                    xk=(   0.36664,   0.51957,   0.25043  )

     zone border point and non-symmorphic group 
     symmetry decomposition not available

 **************************************************************************

 **************************************************************************

                    xk=(   0.36331,   0.52534,   0.25043  )

     zone border point and non-symmorphic group 
     symmetry decomposition not available

 **************************************************************************

 **************************************************************************

                    xk=(   0.35997,   0.53111,   0.25043  )

     zone border point and non-symmorphic group 
     symmetry decomposition not available

 **************************************************************************

 **************************************************************************

                    xk=(   0.35664,   0.53689,   0.25043  )

     zone border point and non-symmorphic group 
     symmetry decomposition not available

 **************************************************************************

 **************************************************************************

                    xk=(   0.35330,   0.54266,   0.25043  )

     zone border point and non-symmorphic group 
     symmetry decomposition not available

 **************************************************************************

 **************************************************************************

                    xk=(   0.34997,   0.54843,   0.25043  )

     zone border point and non-symmorphic group 
     symmetry decomposition not available

 **************************************************************************

 **************************************************************************

                    xk=(   0.34664,   0.55420,   0.25043  )

     zone border point and non-symmorphic group 
     symmetry decomposition not available

 **************************************************************************

 **************************************************************************

                    xk=(   0.34330,   0.55998,   0.25043  )

     zone border point and non-symmorphic group 
     symmetry decomposition not available

 **************************************************************************

 **************************************************************************

                    xk=(   0.33997,   0.56575,   0.25043  )

     zone border point and non-symmorphic group 
     symmetry decomposition not available

 **************************************************************************

 **************************************************************************

                    xk=(   0.33663,   0.57152,   0.25043  )

     zone border point and non-symmorphic group 
     symmetry decomposition not available

 **************************************************************************

 **************************************************************************

                    xk=(   0.33330,   0.57729,   0.25043  )

     zone border point and non-symmorphic group 
     symmetry decomposition not available

 **************************************************************************

 **************************************************************************

                    xk=(   0.32663,   0.56575,   0.25043  )

     zone border point and non-symmorphic group 
     symmetry decomposition not available

 **************************************************************************

 **************************************************************************

                    xk=(   0.31997,   0.55420,   0.25043  )

     zone border point and non-symmorphic group 
     symmetry decomposition not available

 **************************************************************************

 **************************************************************************

                    xk=(   0.31330,   0.54265,   0.25043  )

     zone border point and non-symmorphic group 
     symmetry decomposition not available

 **************************************************************************

 **************************************************************************

                    xk=(   0.30664,   0.53111,   0.25043  )

     zone border point and non-symmorphic group 
     symmetry decomposition not available

 **************************************************************************

 **************************************************************************

                    xk=(   0.29997,   0.51956,   0.25043  )

     zone border point and non-symmorphic group 
     symmetry decomposition not available

 **************************************************************************

 **************************************************************************

                    xk=(   0.29330,   0.50802,   0.25043  )

     zone border point and non-symmorphic group 
     symmetry decomposition not available

 **************************************************************************

 **************************************************************************

                    xk=(   0.28664,   0.49647,   0.25043  )

     zone border point and non-symmorphic group 
     symmetry decomposition not available

 **************************************************************************

 **************************************************************************

                    xk=(   0.27997,   0.48493,   0.25043  )

     zone border point and non-symmorphic group 
     symmetry decomposition not available

 **************************************************************************

 **************************************************************************

                    xk=(   0.27331,   0.47338,   0.25043  )

     zone border point and non-symmorphic group 
     symmetry decomposition not available

 **************************************************************************

 **************************************************************************

                    xk=(   0.26664,   0.46183,   0.25043  )

     zone border point and non-symmorphic group 
     symmetry decomposition not available

 **************************************************************************

 **************************************************************************

                    xk=(   0.25997,   0.45029,   0.25043  )

     zone border point and non-symmorphic group 
     symmetry decomposition not available

 **************************************************************************

 **************************************************************************

                    xk=(   0.25331,   0.43874,   0.25043  )

     zone border point and non-symmorphic group 
     symmetry decomposition not available

 **************************************************************************

 **************************************************************************

                    xk=(   0.24664,   0.42720,   0.25043  )

     zone border point and non-symmorphic group 
     symmetry decomposition not available

 **************************************************************************

 **************************************************************************

                    xk=(   0.23998,   0.41565,   0.25043  )

     zone border point and non-symmorphic group 
     symmetry decomposition not available

 **************************************************************************

 **************************************************************************

                    xk=(   0.23331,   0.40410,   0.25043  )

     zone border point and non-symmorphic group 
     symmetry decomposition not available

 **************************************************************************

 **************************************************************************

                    xk=(   0.22664,   0.39256,   0.25043  )

     zone border point and non-symmorphic group 
     symmetry decomposition not available

 **************************************************************************

 **************************************************************************

                    xk=(   0.21998,   0.38101,   0.25043  )

     zone border point and non-symmorphic group 
     symmetry decomposition not available

 **************************************************************************

 **************************************************************************

                    xk=(   0.21331,   0.36947,   0.25043  )

     zone border point and non-symmorphic group 
     symmetry decomposition not available

 **************************************************************************

 **************************************************************************

                    xk=(   0.20665,   0.35792,   0.25043  )

     zone border point and non-symmorphic group 
     symmetry decomposition not available

 **************************************************************************

 **************************************************************************

                    xk=(   0.19998,   0.34638,   0.25043  )

     zone border point and non-symmorphic group 
     symmetry decomposition not available

 **************************************************************************

 **************************************************************************

                    xk=(   0.19331,   0.33483,   0.25043  )

     zone border point and non-symmorphic group 
     symmetry decomposition not available

 **************************************************************************

 **************************************************************************

                    xk=(   0.18665,   0.32328,   0.25043  )

     zone border point and non-symmorphic group 
     symmetry decomposition not available

 **************************************************************************

 **************************************************************************

                    xk=(   0.17998,   0.31174,   0.25043  )

     zone border point and non-symmorphic group 
     symmetry decomposition not available

 **************************************************************************

 **************************************************************************

                    xk=(   0.17332,   0.30019,   0.25043  )

     zone border point and non-symmorphic group 
     symmetry decomposition not available

 **************************************************************************

 **************************************************************************

                    xk=(   0.16665,   0.28865,   0.25043  )

     zone border point and non-symmorphic group 
     symmetry decomposition not available

 **************************************************************************

 **************************************************************************

                    xk=(   0.15998,   0.27710,   0.25043  )

     zone border point and non-symmorphic group 
     symmetry decomposition not available

 **************************************************************************

 **************************************************************************

                    xk=(   0.15332,   0.26555,   0.25043  )

     zone border point and non-symmorphic group 
     symmetry decomposition not available

 **************************************************************************

 **************************************************************************

                    xk=(   0.14665,   0.25401,   0.25043  )

     zone border point and non-symmorphic group 
     symmetry decomposition not available

 **************************************************************************

 **************************************************************************

                    xk=(   0.13999,   0.24246,   0.25043  )

     zone border point and non-symmorphic group 
     symmetry decomposition not available

 **************************************************************************

 **************************************************************************

                    xk=(   0.13332,   0.23092,   0.25043  )

     zone border point and non-symmorphic group 
     symmetry decomposition not available

 **************************************************************************

 **************************************************************************

                    xk=(   0.12665,   0.21937,   0.25043  )

     zone border point and non-symmorphic group 
     symmetry decomposition not available

 **************************************************************************

 **************************************************************************

                    xk=(   0.11999,   0.20783,   0.25043  )

     zone border point and non-symmorphic group 
     symmetry decomposition not available

 **************************************************************************

 **************************************************************************

                    xk=(   0.11332,   0.19628,   0.25043  )

     zone border point and non-symmorphic group 
     symmetry decomposition not available

 **************************************************************************

 **************************************************************************

                    xk=(   0.10666,   0.18473,   0.25043  )

     zone border point and non-symmorphic group 
     symmetry decomposition not available

 **************************************************************************

 **************************************************************************

                    xk=(   0.09999,   0.17319,   0.25043  )

     zone border point and non-symmorphic group 
     symmetry decomposition not available

 **************************************************************************

 **************************************************************************

                    xk=(   0.09332,   0.16164,   0.25043  )

     zone border point and non-symmorphic group 
     symmetry decomposition not available

 **************************************************************************

 **************************************************************************

                    xk=(   0.08666,   0.15010,   0.25043  )

     zone border point and non-symmorphic group 
     symmetry decomposition not available

 **************************************************************************

 **************************************************************************

                    xk=(   0.07999,   0.13855,   0.25043  )

     zone border point and non-symmorphic group 
     symmetry decomposition not available

 **************************************************************************

 **************************************************************************

                    xk=(   0.07333,   0.12700,   0.25043  )

     zone border point and non-symmorphic group 
     symmetry decomposition not available

 **************************************************************************

 **************************************************************************

                    xk=(   0.06666,   0.11546,   0.25043  )

     zone border point and non-symmorphic group 
     symmetry decomposition not available

 **************************************************************************

 **************************************************************************

                    xk=(   0.05999,   0.10391,   0.25043  )

     zone border point and non-symmorphic group 
     symmetry decomposition not available

 **************************************************************************

 **************************************************************************

                    xk=(   0.05333,   0.09237,   0.25043  )

     zone border point and non-symmorphic group 
     symmetry decomposition not available

 **************************************************************************

 **************************************************************************

                    xk=(   0.04666,   0.08082,   0.25043  )

     zone border point and non-symmorphic group 
     symmetry decomposition not available

 **************************************************************************

 **************************************************************************

                    xk=(   0.04000,   0.06928,   0.25043  )

     zone border point and non-symmorphic group 
     symmetry decomposition not available

 **************************************************************************

 **************************************************************************

                    xk=(   0.03333,   0.05773,   0.25043  )

     zone border point and non-symmorphic group 
     symmetry decomposition not available

 **************************************************************************

 **************************************************************************

                    xk=(   0.02666,   0.04618,   0.25043  )

     zone border point and non-symmorphic group 
     symmetry decomposition not available

 **************************************************************************

 **************************************************************************

                    xk=(   0.02000,   0.03464,   0.25043  )

     zone border point and non-symmorphic group 
     symmetry decomposition not available

 **************************************************************************

 **************************************************************************

                    xk=(   0.01333,   0.02309,   0.25043  )

     zone border point and non-symmorphic group 
     symmetry decomposition not available

 **************************************************************************

 **************************************************************************

                    xk=(   0.00667,   0.01155,   0.25043  )

     zone border point and non-symmorphic group 
     symmetry decomposition not available

 **************************************************************************

 **************************************************************************

                    xk=(   0.00000,   0.00000,   0.25043  )

     zone border point and non-symmorphic group 
     symmetry decomposition not available

 **************************************************************************

     BANDS        :   4m39.59s CPU   7m38.08s WALL


   This run was terminated on:   8:47:55   3Jun2023            

=------------------------------------------------------------------------------=
   JOB DONE.
=------------------------------------------------------------------------------=
