
     Program BANDS v.7.1 starts on  3Jun2023 at 16: 7:13 

     This program is part of the open-source Quantum ESPRESSO suite
     for quantum simulation of materials; please cite
         "P. Giannozzi et al., J. Phys.:Condens. Matter 21 395502 (2009);
         "P. Giannozzi et al., J. Phys.:Condens. Matter 29 465901 (2017);
         "P. Giannozzi et al., J. Chem. Phys. 152 154105 (2020);
          URL http://www.quantum-espresso.org", 
     in publications or presentations arising from this work. More details at
     http://www.quantum-espresso.org/quote

     Parallel version (MPI & OpenMP), running on      60 processor cores
     Number of MPI processes:                30
     Threads/MPI process:                     2

     MPI processes distributed on     5 nodes
     R & G space division:  proc/nbgrp/npool/nimage =      30
     5336 MiB available memory on the printing compute node when the environment starts


     Reading xml data from directory:

     ../out/TiS.save/

     IMPORTANT: XC functional enforced from input :
     Exchange-correlation= PBE
                           (   1   4   3   4   0   0   0)
     Any further DFT definition will be discarded
     Please, verify this is what you really want


     Parallelization info
     --------------------
     sticks:   dense  smooth     PW     G-vecs:    dense   smooth      PW
     Min          24      12      4                 1094      386      66
     Max          25      13      5                 1107      395      72
     Sum         745     379    121                33091    11681    2079

     Using Slab Decomposition


     Check: negative core charge=   -0.000005

     negative rho (up, down):  1.564E-03 0.000E+00
     Reading collected, re-writing distributed wavefunctions
     high-symmetry point:  0.5000 0.2887 0.0000   x coordinate   0.0000
     high-symmetry point:  0.3333 0.5773 0.0000   x coordinate   0.3333
     high-symmetry point:  0.0000 0.0000 0.0000   x coordinate   0.9999
     high-symmetry point:  0.5000 0.2887 0.0000   x coordinate   1.5773
     high-symmetry point:  0.0000 0.0000 0.0000   x coordinate   2.1546
     high-symmetry point:  0.0000 0.0000 0.2504   x coordinate   2.4050
     high-symmetry point:  0.5000 0.2887 0.2504   x coordinate   2.9824
     high-symmetry point:  0.3333 0.5773 0.2504   x coordinate   3.3157

     Plottable bands (eV) written to file TiS.bands.gnu
     Bands written to file TiS.bands

 **************************************************************************

                    xk=(   0.50000,   0.28868,   0.00000  )

     point group C_2h (2/m) 
     there are  4 classes
     the character table:

       E     C2    i     s_h  
A_g    1.00  1.00  1.00  1.00
B_g    1.00 -1.00  1.00 -1.00
A_u    1.00  1.00 -1.00 -1.00
B_u    1.00 -1.00 -1.00  1.00

     the symmetry operations in each class and the name of the first element:

     E        1
                                                                 
     C2       2
                                                                 
     i        3
                                                                 
     s_h      4
                                                                 

     Band symmetry, C_2h (2/m)  point group:

     e(  1 -  1) =    -44.21896  eV     1   --> A_g            
     e(  2 -  2) =    -44.20912  eV     1   --> B_g            
     e(  3 -  3) =    -20.60992  eV     1   --> B_u            
     e(  4 -  4) =    -20.59468  eV     1   --> B_u            
     e(  5 -  5) =    -20.58083  eV     1   --> A_u            
     e(  6 -  6) =    -20.46884  eV     1   --> A_u            
     e(  7 -  7) =    -20.46677  eV     1   --> B_u            
     e(  8 -  8) =    -20.45216  eV     1   --> A_u            
     e(  9 -  9) =     -0.82639  eV     1   --> A_g            
     e( 10 - 10) =     -0.49616  eV     1   --> B_u            
     e( 11 - 11) =      5.66209  eV     1   --> A_g            
     e( 12 - 12) =      7.01772  eV     1   --> B_u            
     e( 13 - 13) =      7.52653  eV     1   --> B_g            
     e( 14 - 14) =      8.28961  eV     1   --> A_u            
     e( 15 - 15) =      8.91994  eV     1   --> A_g            
     e( 16 - 16) =     10.16708  eV     1   --> B_u            
     e( 17 - 17) =     11.23140  eV     1   --> A_g            
     e( 18 - 18) =     12.22892  eV     1   --> B_g            
     e( 19 - 19) =     13.76605  eV     1   --> B_g            
     e( 20 - 20) =     14.91708  eV     1   --> A_g            
     e( 21 - 21) =     15.04778  eV     1   --> B_g            
     e( 22 - 22) =     15.14178  eV     1   -->   ?

 **************************************************************************

 **************************************************************************

                    xk=(   0.49667,   0.29445,   0.00000  )

     point group C_s (m)    
     there are  2 classes
     the character table:

       E     s    
A'     1.00  1.00
A''    1.00 -1.00

     the symmetry operations in each class and the name of the first element:

     E        1
                                                                 
     s        2
                                                                 

     Band symmetry, C_s (m)     point group:

     e(  1 -  1) =    -44.21895  eV     1   --> A'             
     e(  2 -  2) =    -44.20912  eV     1   --> A''            
     e(  3 -  3) =    -20.60989  eV     1   --> A'             
     e(  4 -  4) =    -20.59468  eV     1   --> A'             
     e(  5 -  5) =    -20.58080  eV     1   --> A''            
     e(  6 -  6) =    -20.46884  eV     1   --> A''            
     e(  7 -  7) =    -20.46681  eV     1   --> A'             
     e(  8 -  8) =    -20.45221  eV     1   --> A''            
     e(  9 -  9) =     -0.82614  eV     1   --> A'             
     e( 10 - 10) =     -0.49611  eV     1   --> A'             
     e( 11 - 11) =      5.66260  eV     1   --> A'             
     e( 12 - 12) =      7.01775  eV     1   --> A'             
     e( 13 - 13) =      7.52687  eV     1   --> A''            
     e( 14 - 14) =      8.28939  eV     1   --> A''            
     e( 15 - 15) =      8.91931  eV     1   --> A'             
     e( 16 - 16) =     10.16065  eV     1   --> A'             
     e( 17 - 17) =     11.23710  eV     1   --> A'             
     e( 18 - 18) =     12.22941  eV     1   --> A''            
     e( 19 - 19) =     13.76586  eV     1   --> A''            
     e( 20 - 20) =     14.91600  eV     1   --> A'             
     e( 21 - 21) =     15.04764  eV     1   --> A''            
     e( 22 - 22) =     15.12529  eV     1   -->   ?

 **************************************************************************

 **************************************************************************

                    xk=(   0.49333,   0.30022,   0.00000  )

     Band symmetry, C_s (m)     point group:

     e(  1 -  1) =    -44.21894  eV     1   --> A'             
     e(  2 -  2) =    -44.20911  eV     1   --> A''            
     e(  3 -  3) =    -20.60981  eV     1   --> A'             
     e(  4 -  4) =    -20.59466  eV     1   --> A'             
     e(  5 -  5) =    -20.58073  eV     1   --> A''            
     e(  6 -  6) =    -20.46883  eV     1   --> A''            
     e(  7 -  7) =    -20.46697  eV     1   --> A'             
     e(  8 -  8) =    -20.45235  eV     1   --> A''            
     e(  9 -  9) =     -0.82539  eV     1   --> A'             
     e( 10 - 10) =     -0.49598  eV     1   --> A'             
     e( 11 - 11) =      5.66413  eV     1   --> A'             
     e( 12 - 12) =      7.01786  eV     1   --> A'             
     e( 13 - 13) =      7.52792  eV     1   --> A''            
     e( 14 - 14) =      8.28874  eV     1   --> A''            
     e( 15 - 15) =      8.91743  eV     1   --> A'             
     e( 16 - 16) =     10.14174  eV     1   --> A'             
     e( 17 - 17) =     11.25380  eV     1   --> A'             
     e( 18 - 18) =     12.23090  eV     1   --> A''            
     e( 19 - 19) =     13.76527  eV     1   --> A''            
     e( 20 - 20) =     14.91274  eV     1   --> A'             
     e( 21 - 21) =     15.04724  eV     1   --> A''            
     e( 22 - 22) =     15.13193  eV     1   -->   ?

 **************************************************************************

 **************************************************************************

                    xk=(   0.49000,   0.30599,   0.00000  )

     Band symmetry, C_s (m)     point group:

     e(  1 -  1) =    -44.21893  eV     1   --> A'             
     e(  2 -  2) =    -44.20910  eV     1   --> A''            
     e(  3 -  3) =    -20.60968  eV     1   --> A'             
     e(  4 -  4) =    -20.59463  eV     1   --> A'             
     e(  5 -  5) =    -20.58061  eV     1   --> A''            
     e(  6 -  6) =    -20.46882  eV     1   --> A''            
     e(  7 -  7) =    -20.46722  eV     1   --> A'             
     e(  8 -  8) =    -20.45258  eV     1   --> A''            
     e(  9 -  9) =     -0.82415  eV     1   --> A'             
     e( 10 - 10) =     -0.49575  eV     1   --> A'             
     e( 11 - 11) =      5.66667  eV     1   --> A'             
     e( 12 - 12) =      7.01802  eV     1   --> A'             
     e( 13 - 13) =      7.52966  eV     1   --> A''            
     e( 14 - 14) =      8.28766  eV     1   --> A''            
     e( 15 - 15) =      8.91430  eV     1   --> A'             
     e( 16 - 16) =     10.11146  eV     1   --> A'             
     e( 17 - 17) =     11.28039  eV     1   --> A'             
     e( 18 - 18) =     12.23338  eV     1   --> A''            
     e( 19 - 19) =     13.76428  eV     1   --> A''            
     e( 20 - 20) =     14.90732  eV     1   --> A'             
     e( 21 - 21) =     15.04660  eV     1   --> A''            
     e( 22 - 22) =     15.12060  eV     1   -->   ?

 **************************************************************************

 **************************************************************************

                    xk=(   0.48666,   0.31176,   0.00000  )

     Band symmetry, C_s (m)     point group:

     e(  1 -  1) =    -44.21891  eV     1   --> A'             
     e(  2 -  2) =    -44.20909  eV     1   --> A''            
     e(  3 -  3) =    -20.60951  eV     1   --> A'             
     e(  4 -  4) =    -20.59458  eV     1   --> A'             
     e(  5 -  5) =    -20.58045  eV     1   --> A''            
     e(  6 -  6) =    -20.46880  eV     1   --> A''            
     e(  7 -  7) =    -20.46758  eV     1   --> A'             
     e(  8 -  8) =    -20.45292  eV     1   --> A''            
     e(  9 -  9) =     -0.82241  eV     1   --> A'             
     e( 10 - 10) =     -0.49544  eV     1   --> A'             
     e( 11 - 11) =      5.67023  eV     1   --> A'             
     e( 12 - 12) =      7.01826  eV     1   --> A'             
     e( 13 - 13) =      7.53209  eV     1   --> A''            
     e( 14 - 14) =      8.28614  eV     1   --> A''            
     e( 15 - 15) =      8.90994  eV     1   --> A'             
     e( 16 - 16) =     10.07132  eV     1   --> A'             
     e( 17 - 17) =     11.31540  eV     1   --> A'             
     e( 18 - 18) =     12.23684  eV     1   --> A''            
     e( 19 - 19) =     13.76285  eV     1   --> A''            
     e( 20 - 20) =     14.89978  eV     1   --> A'             
     e( 21 - 21) =     15.04575  eV     1   --> A''            
     e( 22 - 22) =     15.13756  eV     1   -->   ?

 **************************************************************************

 **************************************************************************

                    xk=(   0.48333,   0.31754,   0.00000  )

     Band symmetry, C_s (m)     point group:

     e(  1 -  1) =    -44.21890  eV     1   --> A'             
     e(  2 -  2) =    -44.20908  eV     1   --> A''            
     e(  3 -  3) =    -20.60928  eV     1   --> A'             
     e(  4 -  4) =    -20.59453  eV     1   --> A'             
     e(  5 -  5) =    -20.58024  eV     1   --> A''            
     e(  6 -  6) =    -20.46877  eV     1   --> A''            
     e(  7 -  7) =    -20.46804  eV     1   --> A'             
     e(  8 -  8) =    -20.45334  eV     1   --> A''            
     e(  9 -  9) =     -0.82018  eV     1   --> A'             
     e( 10 - 10) =     -0.49504  eV     1   --> A'             
     e( 11 - 11) =      5.67479  eV     1   --> A'             
     e( 12 - 12) =      7.01856  eV     1   --> A'             
     e( 13 - 13) =      7.53521  eV     1   --> A''            
     e( 14 - 14) =      8.28421  eV     1   --> A''            
     e( 15 - 15) =      8.90437  eV     1   --> A'             
     e( 16 - 16) =     10.02294  eV     1   --> A'             
     e( 17 - 17) =     11.35723  eV     1   --> A'             
     e( 18 - 18) =     12.24129  eV     1   --> A''            
     e( 19 - 19) =     13.76098  eV     1   --> A''            
     e( 20 - 20) =     14.89017  eV     1   --> A'             
     e( 21 - 21) =     15.04478  eV     1   --> A''            
     e( 22 - 22) =     15.11577  eV     1   -->   ?

 **************************************************************************

 **************************************************************************

                    xk=(   0.48000,   0.32331,   0.00000  )

     Band symmetry, C_s (m)     point group:

     e(  1 -  1) =    -44.21887  eV     1   --> A'             
     e(  2 -  2) =    -44.20906  eV     1   --> A''            
     e(  3 -  3) =    -20.60900  eV     1   --> A'             
     e(  4 -  4) =    -20.59446  eV     1   --> A'             
     e(  5 -  5) =    -20.57998  eV     1   --> A''            
     e(  6 -  6) =    -20.46874  eV     1   --> A''            
     e(  7 -  7) =    -20.46859  eV     1   --> A'             
     e(  8 -  8) =    -20.45385  eV     1   --> A''            
     e(  9 -  9) =     -0.81746  eV     1   --> A'             
     e( 10 - 10) =     -0.49456  eV     1   --> A'             
     e( 11 - 11) =      5.68037  eV     1   --> A'             
     e( 12 - 12) =      7.01892  eV     1   --> A'             
     e( 13 - 13) =      7.53900  eV     1   --> A''            
     e( 14 - 14) =      8.28186  eV     1   --> A''            
     e( 15 - 15) =      8.89761  eV     1   --> A'             
     e( 16 - 16) =      9.96781  eV     1   --> A'             
     e( 17 - 17) =     11.40444  eV     1   --> A'             
     e( 18 - 18) =     12.24671  eV     1   --> A''            
     e( 19 - 19) =     13.75865  eV     1   --> A''            
     e( 20 - 20) =     14.87855  eV     1   --> A'             
     e( 21 - 21) =     15.04376  eV     1   --> A''            
     e( 22 - 22) =     15.11233  eV     1   -->   ?

 **************************************************************************

 **************************************************************************

                    xk=(   0.47666,   0.32908,   0.00000  )

     Band symmetry, C_s (m)     point group:

     e(  1 -  1) =    -44.21884  eV     1   --> A'             
     e(  2 -  2) =    -44.20904  eV     1   --> A''            
     e(  3 -  3) =    -20.60868  eV     1   --> A'             
     e(  4 -  4) =    -20.59439  eV     1   --> A'             
     e(  5 -  5) =    -20.57967  eV     1   --> A''            
     e(  6 -  6) =    -20.46925  eV     1   --> A'             
     e(  7 -  7) =    -20.46871  eV     1   --> A''            
     e(  8 -  8) =    -20.45446  eV     1   --> A''            
     e(  9 -  9) =     -0.81427  eV     1   --> A'             
     e( 10 - 10) =     -0.49399  eV     1   --> A'             
     e( 11 - 11) =      5.68696  eV     1   --> A'             
     e( 12 - 12) =      7.01934  eV     1   --> A'             
     e( 13 - 13) =      7.54346  eV     1   --> A''            
     e( 14 - 14) =      8.27910  eV     1   --> A''            
     e( 15 - 15) =      8.88968  eV     1   --> A'             
     e( 16 - 16) =      9.90721  eV     1   --> A'             
     e( 17 - 17) =     11.45575  eV     1   --> A'             
     e( 18 - 18) =     12.25310  eV     1   --> A''            
     e( 19 - 19) =     13.75577  eV     1   --> A''            
     e( 20 - 20) =     14.86498  eV     1   --> A'             
     e( 21 - 21) =     15.04278  eV     1   --> A''            
     e( 22 - 22) =     15.10840  eV     1   -->   ?

 **************************************************************************

 **************************************************************************

                    xk=(   0.47333,   0.33485,   0.00000  )

     Band symmetry, C_s (m)     point group:

     e(  1 -  1) =    -44.21881  eV     1   --> A'             
     e(  2 -  2) =    -44.20901  eV     1   --> A''            
     e(  3 -  3) =    -20.60831  eV     1   --> A'             
     e(  4 -  4) =    -20.59429  eV     1   --> A'             
     e(  5 -  5) =    -20.57932  eV     1   --> A''            
     e(  6 -  6) =    -20.47001  eV     1   --> A'             
     e(  7 -  7) =    -20.46866  eV     1   --> A''            
     e(  8 -  8) =    -20.45515  eV     1   --> A''            
     e(  9 -  9) =     -0.81060  eV     1   --> A'             
     e( 10 - 10) =     -0.49335  eV     1   --> A'             
     e( 11 - 11) =      5.69455  eV     1   --> A'             
     e( 12 - 12) =      7.01982  eV     1   --> A'             
     e( 13 - 13) =      7.54859  eV     1   --> A''            
     e( 14 - 14) =      8.27594  eV     1   --> A''            
     e( 15 - 15) =      8.88062  eV     1   --> A'             
     e( 16 - 16) =      9.84223  eV     1   --> A'             
     e( 17 - 17) =     11.51017  eV     1   --> A'             
     e( 18 - 18) =     12.26046  eV     1   --> A''            
     e( 19 - 19) =     13.75235  eV     1   --> A''            
     e( 20 - 20) =     14.84956  eV     1   --> A'             
     e( 21 - 21) =     15.04194  eV     1   --> A''            
     e( 22 - 22) =     15.10321  eV     1   -->   ?

 **************************************************************************

 **************************************************************************

                    xk=(   0.46999,   0.34063,   0.00000  )

     Band symmetry, C_s (m)     point group:

     e(  1 -  1) =    -44.21877  eV     1   --> A'             
     e(  2 -  2) =    -44.20897  eV     1   --> A''            
     e(  3 -  3) =    -20.60789  eV     1   --> A'             
     e(  4 -  4) =    -20.59419  eV     1   --> A'             
     e(  5 -  5) =    -20.57892  eV     1   --> A''            
     e(  6 -  6) =    -20.47086  eV     1   --> A'             
     e(  7 -  7) =    -20.46861  eV     1   --> A''            
     e(  8 -  8) =    -20.45593  eV     1   --> A''            
     e(  9 -  9) =     -0.80646  eV     1   --> A'             
     e( 10 - 10) =     -0.49263  eV     1   --> A'             
     e( 11 - 11) =      5.70315  eV     1   --> A'             
     e( 12 - 12) =      7.02036  eV     1   --> A'             
     e( 13 - 13) =      7.55436  eV     1   --> A''            
     e( 14 - 14) =      8.27238  eV     1   --> A''            
     e( 15 - 15) =      8.87047  eV     1   --> A'             
     e( 16 - 16) =      9.77371  eV     1   --> A'             
     e( 17 - 17) =     11.56689  eV     1   --> A'             
     e( 18 - 18) =     12.26878  eV     1   --> A''            
     e( 19 - 19) =     13.74832  eV     1   --> A''            
     e( 20 - 20) =     14.83238  eV     1   --> A'             
     e( 21 - 21) =     15.04135  eV     1   --> A''            
     e( 22 - 22) =     15.09749  eV     1   --> A'             

 **************************************************************************

 **************************************************************************

                    xk=(   0.46666,   0.34640,   0.00000  )

     Band symmetry, C_s (m)     point group:

     e(  1 -  1) =    -44.21874  eV     1   --> A'             
     e(  2 -  2) =    -44.20894  eV     1   --> A''            
     e(  3 -  3) =    -20.60743  eV     1   --> A'             
     e(  4 -  4) =    -20.59407  eV     1   --> A'             
     e(  5 -  5) =    -20.57847  eV     1   --> A''            
     e(  6 -  6) =    -20.47181  eV     1   --> A'             
     e(  7 -  7) =    -20.46856  eV     1   --> A''            
     e(  8 -  8) =    -20.45680  eV     1   --> A''            
     e(  9 -  9) =     -0.80187  eV     1   --> A'             
     e( 10 - 10) =     -0.49184  eV     1   --> A'             
     e( 11 - 11) =      5.71275  eV     1   --> A'             
     e( 12 - 12) =      7.02095  eV     1   --> A'             
     e( 13 - 13) =      7.56077  eV     1   --> A''            
     e( 14 - 14) =      8.26845  eV     1   --> A''            
     e( 15 - 15) =      8.85927  eV     1   --> A'             
     e( 16 - 16) =      9.70233  eV     1   --> A'             
     e( 17 - 17) =     11.62528  eV     1   --> A'             
     e( 18 - 18) =     12.27804  eV     1   --> A''            
     e( 19 - 19) =     13.74363  eV     1   --> A''            
     e( 20 - 20) =     14.81354  eV     1   --> A'             
     e( 21 - 21) =     15.04113  eV     1   --> A''            
     e( 22 - 22) =     15.09095  eV     1   --> A'             

 **************************************************************************

 **************************************************************************

                    xk=(   0.46333,   0.35217,   0.00000  )

     Band symmetry, C_s (m)     point group:

     e(  1 -  1) =    -44.21869  eV     1   --> A'             
     e(  2 -  2) =    -44.20891  eV     1   --> A''            
     e(  3 -  3) =    -20.60692  eV     1   --> A'             
     e(  4 -  4) =    -20.59394  eV     1   --> A'             
     e(  5 -  5) =    -20.57798  eV     1   --> A''            
     e(  6 -  6) =    -20.47285  eV     1   --> A'             
     e(  7 -  7) =    -20.46851  eV     1   --> A''            
     e(  8 -  8) =    -20.45775  eV     1   --> A''            
     e(  9 -  9) =     -0.79683  eV     1   --> A'             
     e( 10 - 10) =     -0.49097  eV     1   --> A'             
     e( 11 - 11) =      5.72334  eV     1   --> A'             
     e( 12 - 12) =      7.02157  eV     1   --> A'             
     e( 13 - 13) =      7.56780  eV     1   --> A''            
     e( 14 - 14) =      8.26414  eV     1   --> A''            
     e( 15 - 15) =      8.84706  eV     1   --> A'             
     e( 16 - 16) =      9.62865  eV     1   --> A'             
     e( 17 - 17) =     11.68487  eV     1   --> A'             
     e( 18 - 18) =     12.28823  eV     1   --> A''            
     e( 19 - 19) =     13.73824  eV     1   --> A''            
     e( 20 - 20) =     14.79315  eV     1   --> A'             
     e( 21 - 21) =     15.04140  eV     1   --> A''            
     e( 22 - 22) =     15.08355  eV     1   --> A'             

 **************************************************************************

 **************************************************************************

                    xk=(   0.45999,   0.35794,   0.00000  )

     Band symmetry, C_s (m)     point group:

     e(  1 -  1) =    -44.21865  eV     1   --> A'             
     e(  2 -  2) =    -44.20886  eV     1   --> A''            
     e(  3 -  3) =    -20.60637  eV     1   --> A'             
     e(  4 -  4) =    -20.59379  eV     1   --> A'             
     e(  5 -  5) =    -20.57744  eV     1   --> A''            
     e(  6 -  6) =    -20.47398  eV     1   --> A'             
     e(  7 -  7) =    -20.46845  eV     1   --> A''            
     e(  8 -  8) =    -20.45879  eV     1   --> A''            
     e(  9 -  9) =     -0.79135  eV     1   --> A'             
     e( 10 - 10) =     -0.49005  eV     1   --> A'             
     e( 11 - 11) =      5.73492  eV     1   --> A'             
     e( 12 - 12) =      7.02225  eV     1   --> A'             
     e( 13 - 13) =      7.57544  eV     1   --> A''            
     e( 14 - 14) =      8.25948  eV     1   --> A''            
     e( 15 - 15) =      8.83391  eV     1   --> A'             
     e( 16 - 16) =      9.55311  eV     1   --> A'             
     e( 17 - 17) =     11.74529  eV     1   --> A'             
     e( 18 - 18) =     12.29934  eV     1   --> A''            
     e( 19 - 19) =     13.73211  eV     1   --> A''            
     e( 20 - 20) =     14.77133  eV     1   --> A'             
     e( 21 - 21) =     15.04229  eV     1   --> A''            
     e( 22 - 22) =     15.07532  eV     1   -->   ?

 **************************************************************************

 **************************************************************************

                    xk=(   0.45666,   0.36372,   0.00000  )

     Band symmetry, C_s (m)     point group:

     e(  1 -  1) =    -44.21861  eV     1   --> A'             
     e(  2 -  2) =    -44.20882  eV     1   --> A''            
     e(  3 -  3) =    -20.60578  eV     1   --> A'             
     e(  4 -  4) =    -20.59363  eV     1   --> A'             
     e(  5 -  5) =    -20.57686  eV     1   --> A''            
     e(  6 -  6) =    -20.47521  eV     1   --> A'             
     e(  7 -  7) =    -20.46839  eV     1   --> A''            
     e(  8 -  8) =    -20.45991  eV     1   --> A''            
     e(  9 -  9) =     -0.78545  eV     1   --> A'             
     e( 10 - 10) =     -0.48906  eV     1   --> A'             
     e( 11 - 11) =      5.74749  eV     1   --> A'             
     e( 12 - 12) =      7.02296  eV     1   --> A'             
     e( 13 - 13) =      7.58367  eV     1   --> A''            
     e( 14 - 14) =      8.25447  eV     1   --> A''            
     e( 15 - 15) =      8.81985  eV     1   --> A'             
     e( 16 - 16) =      9.47606  eV     1   --> A'             
     e( 17 - 17) =     11.80625  eV     1   --> A'             
     e( 18 - 18) =     12.31136  eV     1   --> A''            
     e( 19 - 19) =     13.72519  eV     1   --> A''            
     e( 20 - 20) =     14.74821  eV     1   --> A'             
     e( 21 - 21) =     15.04391  eV     1   --> A''            
     e( 22 - 22) =     15.06603  eV     1   --> A'             

 **************************************************************************

 **************************************************************************

                    xk=(   0.45332,   0.36949,   0.00000  )

     Band symmetry, C_s (m)     point group:

     e(  1 -  1) =    -44.21856  eV     1   --> A'             
     e(  2 -  2) =    -44.20877  eV     1   --> A''            
     e(  3 -  3) =    -20.60514  eV     1   --> A'             
     e(  4 -  4) =    -20.59345  eV     1   --> A'             
     e(  5 -  5) =    -20.57623  eV     1   --> A''            
     e(  6 -  6) =    -20.47651  eV     1   --> A'             
     e(  7 -  7) =    -20.46832  eV     1   --> A''            
     e(  8 -  8) =    -20.46110  eV     1   --> A''            
     e(  9 -  9) =     -0.77913  eV     1   --> A'             
     e( 10 - 10) =     -0.48801  eV     1   --> A'             
     e( 11 - 11) =      5.76105  eV     1   --> A'             
     e( 12 - 12) =      7.02370  eV     1   --> A'             
     e( 13 - 13) =      7.59246  eV     1   --> A''            
     e( 14 - 14) =      8.24913  eV     1   --> A''            
     e( 15 - 15) =      8.80495  eV     1   --> A'             
     e( 16 - 16) =      9.39782  eV     1   --> A'             
     e( 17 - 17) =     11.86754  eV     1   --> A'             
     e( 18 - 18) =     12.32427  eV     1   --> A''            
     e( 19 - 19) =     13.71744  eV     1   --> A''            
     e( 20 - 20) =     14.72391  eV     1   --> A'             
     e( 21 - 21) =     15.04639  eV     1   --> A''            
     e( 22 - 22) =     15.05585  eV     1   --> A'             

 **************************************************************************

 **************************************************************************

                    xk=(   0.44999,   0.37526,   0.00000  )

     Band symmetry, C_s (m)     point group:

     e(  1 -  1) =    -44.21851  eV     1   --> A'             
     e(  2 -  2) =    -44.20872  eV     1   --> A''            
     e(  3 -  3) =    -20.60447  eV     1   --> A'             
     e(  4 -  4) =    -20.59324  eV     1   --> A'             
     e(  5 -  5) =    -20.57557  eV     1   --> A''            
     e(  6 -  6) =    -20.47791  eV     1   --> A'             
     e(  7 -  7) =    -20.46826  eV     1   --> A''            
     e(  8 -  8) =    -20.46238  eV     1   --> A''            
     e(  9 -  9) =     -0.77242  eV     1   --> A'             
     e( 10 - 10) =     -0.48692  eV     1   --> A'             
     e( 11 - 11) =      5.77557  eV     1   --> A'             
     e( 12 - 12) =      7.02447  eV     1   --> A'             
     e( 13 - 13) =      7.60180  eV     1   --> A''            
     e( 14 - 14) =      8.24347  eV     1   --> A''            
     e( 15 - 15) =      8.78927  eV     1   --> A'             
     e( 16 - 16) =      9.31861  eV     1   --> A'             
     e( 17 - 17) =     11.92900  eV     1   --> A'             
     e( 18 - 18) =     12.33804  eV     1   --> A''            
     e( 19 - 19) =     13.70883  eV     1   --> A''            
     e( 20 - 20) =     14.69855  eV     1   --> A'             
     e( 21 - 21) =     15.04470  eV     1   --> A'             
     e( 22 - 22) =     15.04983  eV     1   --> A''            

 **************************************************************************

 **************************************************************************

                    xk=(   0.44666,   0.38103,   0.00000  )

     Band symmetry, C_s (m)     point group:

     e(  1 -  1) =    -44.21845  eV     1   --> A'             
     e(  2 -  2) =    -44.20867  eV     1   --> A''            
     e(  3 -  3) =    -20.60377  eV     1   --> A'             
     e(  4 -  4) =    -20.59302  eV     1   --> A'             
     e(  5 -  5) =    -20.57485  eV     1   --> A''            
     e(  6 -  6) =    -20.47938  eV     1   --> A'             
     e(  7 -  7) =    -20.46818  eV     1   --> A''            
     e(  8 -  8) =    -20.46373  eV     1   --> A''            
     e(  9 -  9) =     -0.76532  eV     1   --> A'             
     e( 10 - 10) =     -0.48578  eV     1   --> A'             
     e( 11 - 11) =      5.79107  eV     1   --> A'             
     e( 12 - 12) =      7.02526  eV     1   --> A'             
     e( 13 - 13) =      7.61167  eV     1   --> A''            
     e( 14 - 14) =      8.23753  eV     1   --> A''            
     e( 15 - 15) =      8.77287  eV     1   --> A'             
     e( 16 - 16) =      9.23868  eV     1   --> A'             
     e( 17 - 17) =     11.99049  eV     1   --> A'             
     e( 18 - 18) =     12.35267  eV     1   --> A''            
     e( 19 - 19) =     13.69934  eV     1   --> A''            
     e( 20 - 20) =     14.67227  eV     1   --> A'             
     e( 21 - 21) =     15.03255  eV     1   --> A'             
     e( 22 - 22) =     15.05435  eV     1   --> A''            

 **************************************************************************

 **************************************************************************

                    xk=(   0.44332,   0.38681,   0.00000  )

     Band symmetry, C_s (m)     point group:

     e(  1 -  1) =    -44.21839  eV     1   --> A'             
     e(  2 -  2) =    -44.20861  eV     1   --> A''            
     e(  3 -  3) =    -20.60303  eV     1   --> A'             
     e(  4 -  4) =    -20.59278  eV     1   --> A'             
     e(  5 -  5) =    -20.57409  eV     1   --> A''            
     e(  6 -  6) =    -20.48094  eV     1   --> A'             
     e(  7 -  7) =    -20.46810  eV     1   --> A''            
     e(  8 -  8) =    -20.46515  eV     1   --> A''            
     e(  9 -  9) =     -0.75785  eV     1   --> A'             
     e( 10 - 10) =     -0.48461  eV     1   --> A'             
     e( 11 - 11) =      5.80753  eV     1   --> A'             
     e( 12 - 12) =      7.02607  eV     1   --> A'             
     e( 13 - 13) =      7.62204  eV     1   --> A''            
     e( 14 - 14) =      8.23130  eV     1   --> A''            
     e( 15 - 15) =      8.75582  eV     1   --> A'             
     e( 16 - 16) =      9.15820  eV     1   --> A'             
     e( 17 - 17) =     12.05193  eV     1   --> A'             
     e( 18 - 18) =     12.36814  eV     1   --> A''            
     e( 19 - 19) =     13.68894  eV     1   --> A''            
     e( 20 - 20) =     14.64519  eV     1   --> A'             
     e( 21 - 21) =     15.01941  eV     1   --> A'             
     e( 22 - 22) =     15.06003  eV     1   --> A''            

 **************************************************************************

 **************************************************************************

                    xk=(   0.43999,   0.39258,   0.00000  )

     Band symmetry, C_s (m)     point group:

     e(  1 -  1) =    -44.21833  eV     1   --> A'             
     e(  2 -  2) =    -44.20856  eV     1   --> A''            
     e(  3 -  3) =    -20.60227  eV     1   --> A'             
     e(  4 -  4) =    -20.59251  eV     1   --> A'             
     e(  5 -  5) =    -20.57330  eV     1   --> A''            
     e(  6 -  6) =    -20.48256  eV     1   --> A'             
     e(  7 -  7) =    -20.46802  eV     1   --> A''            
     e(  8 -  8) =    -20.46664  eV     1   --> A''            
     e(  9 -  9) =     -0.75004  eV     1   --> A'             
     e( 10 - 10) =     -0.48340  eV     1   --> A'             
     e( 11 - 11) =      5.82494  eV     1   --> A'             
     e( 12 - 12) =      7.02688  eV     1   --> A'             
     e( 13 - 13) =      7.63289  eV     1   --> A''            
     e( 14 - 14) =      8.22481  eV     1   --> A''            
     e( 15 - 15) =      8.73819  eV     1   --> A'             
     e( 16 - 16) =      9.07734  eV     1   --> A'             
     e( 17 - 17) =     12.11325  eV     1   --> A'             
     e( 18 - 18) =     12.38440  eV     1   --> A''            
     e( 19 - 19) =     13.67762  eV     1   --> A''            
     e( 20 - 20) =     14.61743  eV     1   --> A'             
     e( 21 - 21) =     15.00525  eV     1   --> A'             
     e( 22 - 22) =     15.06696  eV     1   --> A''            

 **************************************************************************

 **************************************************************************

                    xk=(   0.43665,   0.39835,   0.00000  )

     Band symmetry, C_s (m)     point group:

     e(  1 -  1) =    -44.21827  eV     1   --> A'             
     e(  2 -  2) =    -44.20849  eV     1   --> A''            
     e(  3 -  3) =    -20.60149  eV     1   --> A'             
     e(  4 -  4) =    -20.59220  eV     1   --> A'             
     e(  5 -  5) =    -20.57246  eV     1   --> A''            
     e(  6 -  6) =    -20.48426  eV     1   --> A'             
     e(  7 -  7) =    -20.46819  eV     1   --> A''            
     e(  8 -  8) =    -20.46793  eV     1   --> A''            
     e(  9 -  9) =     -0.74189  eV     1   --> A'             
     e( 10 - 10) =     -0.48217  eV     1   --> A'             
     e( 11 - 11) =      5.84331  eV     1   --> A'             
     e( 12 - 12) =      7.02768  eV     1   --> A'             
     e( 13 - 13) =      7.64419  eV     1   --> A''            
     e( 14 - 14) =      8.21809  eV     1   --> A''            
     e( 15 - 15) =      8.72004  eV     1   --> A'             
     e( 16 - 16) =      8.99624  eV     1   --> A'             
     e( 17 - 17) =     12.17439  eV     1   --> A'             
     e( 18 - 18) =     12.40146  eV     1   --> A''            
     e( 19 - 19) =     13.66539  eV     1   --> A''            
     e( 20 - 20) =     14.58911  eV     1   --> A'             
     e( 21 - 21) =     14.99009  eV     1   --> A'             
     e( 22 - 22) =     15.07521  eV     1   --> A''            

 **************************************************************************

 **************************************************************************

                    xk=(   0.43332,   0.40412,   0.00000  )

     Band symmetry, C_s (m)     point group:

     e(  1 -  1) =    -44.21819  eV     1   --> A'             
     e(  2 -  2) =    -44.20843  eV     1   --> A''            
     e(  3 -  3) =    -20.60070  eV     1   --> A'             
     e(  4 -  4) =    -20.59186  eV     1   --> A'             
     e(  5 -  5) =    -20.57157  eV     1   --> A''            
     e(  6 -  6) =    -20.48602  eV     1   --> A'             
     e(  7 -  7) =    -20.46981  eV     1   --> A''            
     e(  8 -  8) =    -20.46784  eV     1   --> A''            
     e(  9 -  9) =     -0.73343  eV     1   --> A'             
     e( 10 - 10) =     -0.48092  eV     1   --> A'             
     e( 11 - 11) =      5.86262  eV     1   --> A'             
     e( 12 - 12) =      7.02849  eV     1   --> A'             
     e( 13 - 13) =      7.65591  eV     1   --> A''            
     e( 14 - 14) =      8.21114  eV     1   --> A''            
     e( 15 - 15) =      8.70146  eV     1   --> A'             
     e( 16 - 16) =      8.91505  eV     1   --> A'             
     e( 17 - 17) =     12.23532  eV     1   --> A'             
     e( 18 - 18) =     12.41929  eV     1   --> A''            
     e( 19 - 19) =     13.65225  eV     1   --> A''            
     e( 20 - 20) =     14.56037  eV     1   --> A'             
     e( 21 - 21) =     14.97391  eV     1   --> A'             
     e( 22 - 22) =     15.08483  eV     1   --> A''            

 **************************************************************************

 **************************************************************************

                    xk=(   0.42999,   0.40989,   0.00000  )

     Band symmetry, C_s (m)     point group:

     e(  1 -  1) =    -44.21812  eV     1   --> A'             
     e(  2 -  2) =    -44.20836  eV     1   --> A''            
     e(  3 -  3) =    -20.59990  eV     1   --> A'             
     e(  4 -  4) =    -20.59147  eV     1   --> A'             
     e(  5 -  5) =    -20.57065  eV     1   --> A''            
     e(  6 -  6) =    -20.48785  eV     1   --> A'             
     e(  7 -  7) =    -20.47149  eV     1   --> A''            
     e(  8 -  8) =    -20.46775  eV     1   --> A''            
     e(  9 -  9) =     -0.72468  eV     1   --> A'             
     e( 10 - 10) =     -0.47967  eV     1   --> A'             
     e( 11 - 11) =      5.88285  eV     1   --> A'             
     e( 12 - 12) =      7.02927  eV     1   --> A'             
     e( 13 - 13) =      7.66802  eV     1   --> A''            
     e( 14 - 14) =      8.20398  eV     1   --> A''            
     e( 15 - 15) =      8.68252  eV     1   --> A'             
     e( 16 - 16) =      8.83389  eV     1   --> A'             
     e( 17 - 17) =     12.29600  eV     1   --> A'             
     e( 18 - 18) =     12.43783  eV     1   --> A''            
     e( 19 - 19) =     13.63822  eV     1   --> A''            
     e( 20 - 20) =     14.53128  eV     1   --> A'             
     e( 21 - 21) =     14.95673  eV     1   --> A'             
     e( 22 - 22) =     15.09591  eV     1   --> A''            

 **************************************************************************

 **************************************************************************

                    xk=(   0.42665,   0.41567,   0.00000  )

     Band symmetry, C_s (m)     point group:

     e(  1 -  1) =    -44.21805  eV     1   --> A'             
     e(  2 -  2) =    -44.20830  eV     1   --> A''            
     e(  3 -  3) =    -20.59912  eV     1   --> A'             
     e(  4 -  4) =    -20.59102  eV     1   --> A'             
     e(  5 -  5) =    -20.56968  eV     1   --> A''            
     e(  6 -  6) =    -20.48975  eV     1   --> A'             
     e(  7 -  7) =    -20.47323  eV     1   --> A''            
     e(  8 -  8) =    -20.46766  eV     1   --> A''            
     e(  9 -  9) =     -0.71566  eV     1   --> A'             
     e( 10 - 10) =     -0.47841  eV     1   --> A'             
     e( 11 - 11) =      5.90400  eV     1   --> A'             
     e( 12 - 12) =      7.03003  eV     1   --> A'             
     e( 13 - 13) =      7.68050  eV     1   --> A''            
     e( 14 - 14) =      8.19665  eV     1   --> A''            
     e( 15 - 15) =      8.66329  eV     1   --> A'             
     e( 16 - 16) =      8.75286  eV     1   --> A'             
     e( 17 - 17) =     12.35644  eV     1   --> A'             
     e( 18 - 18) =     12.45708  eV     1   --> A''            
     e( 19 - 19) =     13.62333  eV     1   --> A''            
     e( 20 - 20) =     14.50195  eV     1   --> A'             
     e( 21 - 21) =     14.93854  eV     1   --> A'             
     e( 22 - 22) =     15.10838  eV     1   --> A''            

 **************************************************************************

 **************************************************************************

                    xk=(   0.42332,   0.42144,   0.00000  )

     Band symmetry, C_s (m)     point group:

     e(  1 -  1) =    -44.21798  eV     1   --> A'             
     e(  2 -  2) =    -44.20823  eV     1   --> A''            
     e(  3 -  3) =    -20.59836  eV     1   --> A'             
     e(  4 -  4) =    -20.59050  eV     1   --> A'             
     e(  5 -  5) =    -20.56868  eV     1   --> A''            
     e(  6 -  6) =    -20.49170  eV     1   --> A'             
     e(  7 -  7) =    -20.47502  eV     1   --> A''            
     e(  8 -  8) =    -20.46756  eV     1   --> A''            
     e(  9 -  9) =     -0.70639  eV     1   --> A'             
     e( 10 - 10) =     -0.47715  eV     1   --> A'             
     e( 11 - 11) =      5.92606  eV     1   --> A'             
     e( 12 - 12) =      7.03075  eV     1   --> A'             
     e( 13 - 13) =      7.69330  eV     1   --> A''            
     e( 14 - 14) =      8.18915  eV     1   --> A''            
     e( 15 - 15) =      8.64384  eV     1   --> A'             
     e( 16 - 16) =      8.67209  eV     1   --> A'             
     e( 17 - 17) =     12.41661  eV     1   --> A'             
     e( 18 - 18) =     12.47699  eV     1   --> A''            
     e( 19 - 19) =     13.60762  eV     1   --> A''            
     e( 20 - 20) =     14.47249  eV     1   --> A'             
     e( 21 - 21) =     14.91937  eV     1   --> A'             
     e( 22 - 22) =     15.11616  eV     1   --> A''            

 **************************************************************************

 **************************************************************************

                    xk=(   0.41998,   0.42721,   0.00000  )

     Band symmetry, C_s (m)     point group:

     e(  1 -  1) =    -44.21792  eV     1   --> A'             
     e(  2 -  2) =    -44.20816  eV     1   --> A''            
     e(  3 -  3) =    -20.59763  eV     1   --> A'             
     e(  4 -  4) =    -20.58991  eV     1   --> A'             
     e(  5 -  5) =    -20.56763  eV     1   --> A''            
     e(  6 -  6) =    -20.49371  eV     1   --> A'             
     e(  7 -  7) =    -20.47686  eV     1   --> A''            
     e(  8 -  8) =    -20.46747  eV     1   --> A''            
     e(  9 -  9) =     -0.69691  eV     1   --> A'             
     e( 10 - 10) =     -0.47592  eV     1   --> A'             
     e( 11 - 11) =      5.94902  eV     1   --> A'             
     e( 12 - 12) =      7.03143  eV     1   --> A'             
     e( 13 - 13) =      7.70640  eV     1   --> A''            
     e( 14 - 14) =      8.18151  eV     1   --> A''            
     e( 15 - 15) =      8.59167  eV     1   --> A'             
     e( 16 - 16) =      8.62427  eV     1   --> A'             
     e( 17 - 17) =     12.47651  eV     1   --> A'             
     e( 18 - 18) =     12.49752  eV     1   --> A''            
     e( 19 - 19) =     13.59112  eV     1   --> A''            
     e( 20 - 20) =     14.44299  eV     1   --> A'             
     e( 21 - 21) =     14.89922  eV     1   --> A'             
     e( 22 - 22) =     15.11345  eV     1   --> A''            

 **************************************************************************

 **************************************************************************

                    xk=(   0.41665,   0.43298,   0.00000  )

     Band symmetry, C_s (m)     point group:

     e(  1 -  1) =    -44.21785  eV     1   --> A'             
     e(  2 -  2) =    -44.20809  eV     1   --> A''            
     e(  3 -  3) =    -20.59694  eV     1   --> A'             
     e(  4 -  4) =    -20.58923  eV     1   --> A'             
     e(  5 -  5) =    -20.56655  eV     1   --> A''            
     e(  6 -  6) =    -20.49578  eV     1   --> A'             
     e(  7 -  7) =    -20.47874  eV     1   --> A''            
     e(  8 -  8) =    -20.46737  eV     1   --> A''            
     e(  9 -  9) =     -0.68723  eV     1   --> A'             
     e( 10 - 10) =     -0.47470  eV     1   --> A'             
     e( 11 - 11) =      5.97287  eV     1   --> A'             
     e( 12 - 12) =      7.03206  eV     1   --> A'             
     e( 13 - 13) =      7.71976  eV     1   --> A''            
     e( 14 - 14) =      8.17375  eV     1   --> A''            
     e( 15 - 15) =      8.51170  eV     1   --> A'             
     e( 16 - 16) =      8.60464  eV     1   --> A'             
     e( 17 - 17) =     12.51864  eV     1   --> A''            
     e( 18 - 18) =     12.53615  eV     1   --> A'             
     e( 19 - 19) =     13.57389  eV     1   --> A''            
     e( 20 - 20) =     14.41352  eV     1   --> A'             
     e( 21 - 21) =     14.87812  eV     1   --> A'             
     e( 22 - 22) =     15.11061  eV     1   --> A''            

 **************************************************************************

 **************************************************************************

                    xk=(   0.41332,   0.43876,   0.00000  )

     Band symmetry, C_s (m)     point group:

     e(  1 -  1) =    -44.21778  eV     1   --> A'             
     e(  2 -  2) =    -44.20802  eV     1   --> A''            
     e(  3 -  3) =    -20.59631  eV     1   --> A'             
     e(  4 -  4) =    -20.58846  eV     1   --> A'             
     e(  5 -  5) =    -20.56543  eV     1   --> A''            
     e(  6 -  6) =    -20.49789  eV     1   --> A'             
     e(  7 -  7) =    -20.48067  eV     1   --> A''            
     e(  8 -  8) =    -20.46727  eV     1   --> A''            
     e(  9 -  9) =     -0.67737  eV     1   --> A'             
     e( 10 - 10) =     -0.47352  eV     1   --> A'             
     e( 11 - 11) =      5.99759  eV     1   --> A'             
     e( 12 - 12) =      7.03264  eV     1   --> A'             
     e( 13 - 13) =      7.73333  eV     1   --> A''            
     e( 14 - 14) =      8.16589  eV     1   --> A''            
     e( 15 - 15) =      8.43228  eV     1   --> A'             
     e( 16 - 16) =      8.58503  eV     1   --> A'             
     e( 17 - 17) =     12.54032  eV     1   --> A''            
     e( 18 - 18) =     12.59553  eV     1   --> A'             
     e( 19 - 19) =     13.55597  eV     1   --> A''            
     e( 20 - 20) =     14.38418  eV     1   --> A'             
     e( 21 - 21) =     14.85607  eV     1   --> A'             
     e( 22 - 22) =     15.10764  eV     1   --> A''            

 **************************************************************************

 **************************************************************************

                    xk=(   0.40998,   0.44453,   0.00000  )

     Band symmetry, C_s (m)     point group:

     e(  1 -  1) =    -44.21771  eV     1   --> A'             
     e(  2 -  2) =    -44.20792  eV     1   --> A''            
     e(  3 -  3) =    -20.59573  eV     1   --> A'             
     e(  4 -  4) =    -20.58758  eV     1   --> A'             
     e(  5 -  5) =    -20.56427  eV     1   --> A''            
     e(  6 -  6) =    -20.50004  eV     1   --> A'             
     e(  7 -  7) =    -20.48262  eV     1   --> A''            
     e(  8 -  8) =    -20.46718  eV     1   --> A''            
     e(  9 -  9) =     -0.66738  eV     1   --> A'             
     e( 10 - 10) =     -0.47238  eV     1   --> A'             
     e( 11 - 11) =      6.02318  eV     1   --> A'             
     e( 12 - 12) =      7.03316  eV     1   --> A'             
     e( 13 - 13) =      7.74709  eV     1   --> A''            
     e( 14 - 14) =      8.15797  eV     1   --> A''            
     e( 15 - 15) =      8.35351  eV     1   --> A'             
     e( 16 - 16) =      8.56553  eV     1   --> A'             
     e( 17 - 17) =     12.56249  eV     1   --> A''            
     e( 18 - 18) =     12.65465  eV     1   --> A'             
     e( 19 - 19) =     13.53745  eV     1   --> A''            
     e( 20 - 20) =     14.35502  eV     1   --> A'             
     e( 21 - 21) =     14.83310  eV     1   --> A'             
     e( 22 - 22) =     15.10455  eV     1   --> A''            

 **************************************************************************

 **************************************************************************

                    xk=(   0.40665,   0.45030,   0.00000  )

     Band symmetry, C_s (m)     point group:

     e(  1 -  1) =    -44.21764  eV     1   --> A'             
     e(  2 -  2) =    -44.20786  eV     1   --> A''            
     e(  3 -  3) =    -20.59522  eV     1   --> A'             
     e(  4 -  4) =    -20.58660  eV     1   --> A'             
     e(  5 -  5) =    -20.56308  eV     1   --> A''            
     e(  6 -  6) =    -20.50223  eV     1   --> A'             
     e(  7 -  7) =    -20.48464  eV     1   --> A''            
     e(  8 -  8) =    -20.46709  eV     1   --> A''            
     e(  9 -  9) =     -0.65728  eV     1   --> A'             
     e( 10 - 10) =     -0.47129  eV     1   --> A'             
     e( 11 - 11) =      6.04960  eV     1   --> A'             
     e( 12 - 12) =      7.03359  eV     1   --> A'             
     e( 13 - 13) =      7.76097  eV     1   --> A''            
     e( 14 - 14) =      8.14998  eV     1   --> A''            
     e( 15 - 15) =      8.27547  eV     1   --> A'             
     e( 16 - 16) =      8.54621  eV     1   --> A'             
     e( 17 - 17) =     12.58512  eV     1   --> A''            
     e( 18 - 18) =     12.71350  eV     1   --> A'             
     e( 19 - 19) =     13.51836  eV     1   --> A''            
     e( 20 - 20) =     14.32612  eV     1   --> A'             
     e( 21 - 21) =     14.80923  eV     1   --> A'             
     e( 22 - 22) =     15.10133  eV     1   --> A''            

 **************************************************************************

 **************************************************************************

                    xk=(   0.40331,   0.45607,   0.00000  )

     Band symmetry, C_s (m)     point group:

     e(  1 -  1) =    -44.21757  eV     1   --> A'             
     e(  2 -  2) =    -44.20779  eV     1   --> A''            
     e(  3 -  3) =    -20.59476  eV     1   --> A'             
     e(  4 -  4) =    -20.58553  eV     1   --> A'             
     e(  5 -  5) =    -20.56185  eV     1   --> A''            
     e(  6 -  6) =    -20.50446  eV     1   --> A'             
     e(  7 -  7) =    -20.48667  eV     1   --> A''            
     e(  8 -  8) =    -20.46699  eV     1   --> A''            
     e(  9 -  9) =     -0.64709  eV     1   --> A'             
     e( 10 - 10) =     -0.47025  eV     1   --> A'             
     e( 11 - 11) =      6.07685  eV     1   --> A'             
     e( 12 - 12) =      7.03394  eV     1   --> A'             
     e( 13 - 13) =      7.77496  eV     1   --> A''            
     e( 14 - 14) =      8.14195  eV     1   --> A''            
     e( 15 - 15) =      8.19826  eV     1   --> A'             
     e( 16 - 16) =      8.52714  eV     1   --> A'             
     e( 17 - 17) =     12.60816  eV     1   --> A''            
     e( 18 - 18) =     12.77211  eV     1   --> A'             
     e( 19 - 19) =     13.49877  eV     1   --> A''            
     e( 20 - 20) =     14.29754  eV     1   --> A'             
     e( 21 - 21) =     14.78449  eV     1   --> A'             
     e( 22 - 22) =     15.09800  eV     1   --> A''            

 **************************************************************************

 **************************************************************************

                    xk=(   0.39998,   0.46185,   0.00000  )

     Band symmetry, C_s (m)     point group:

     e(  1 -  1) =    -44.21749  eV     1   --> A'             
     e(  2 -  2) =    -44.20772  eV     1   --> A''            
     e(  3 -  3) =    -20.59435  eV     1   --> A'             
     e(  4 -  4) =    -20.58438  eV     1   --> A'             
     e(  5 -  5) =    -20.56059  eV     1   --> A''            
     e(  6 -  6) =    -20.50671  eV     1   --> A'             
     e(  7 -  7) =    -20.48874  eV     1   --> A''            
     e(  8 -  8) =    -20.46689  eV     1   --> A''            
     e(  9 -  9) =     -0.63686  eV     1   --> A'             
     e( 10 - 10) =     -0.46929  eV     1   --> A'             
     e( 11 - 11) =      6.10491  eV     1   --> A'             
     e( 12 - 12) =      7.03421  eV     1   --> A'             
     e( 13 - 13) =      7.78901  eV     1   --> A''            
     e( 14 - 14) =      8.12195  eV     1   --> A'             
     e( 15 - 15) =      8.13392  eV     1   --> A''            
     e( 16 - 16) =      8.50840  eV     1   --> A'             
     e( 17 - 17) =     12.63156  eV     1   --> A''            
     e( 18 - 18) =     12.83046  eV     1   --> A'             
     e( 19 - 19) =     13.47876  eV     1   --> A''            
     e( 20 - 20) =     14.26932  eV     1   --> A'             
     e( 21 - 21) =     14.75890  eV     1   --> A'             
     e( 22 - 22) =     15.09456  eV     1   --> A''            

 **************************************************************************

 **************************************************************************

                    xk=(   0.39665,   0.46762,   0.00000  )

     Band symmetry, C_s (m)     point group:

     e(  1 -  1) =    -44.21742  eV     1   --> A'             
     e(  2 -  2) =    -44.20765  eV     1   --> A''            
     e(  3 -  3) =    -20.59398  eV     1   --> A'             
     e(  4 -  4) =    -20.58314  eV     1   --> A'             
     e(  5 -  5) =    -20.55930  eV     1   --> A''            
     e(  6 -  6) =    -20.50899  eV     1   --> A'             
     e(  7 -  7) =    -20.49083  eV     1   --> A''            
     e(  8 -  8) =    -20.46680  eV     1   --> A''            
     e(  9 -  9) =     -0.62661  eV     1   --> A'             
     e( 10 - 10) =     -0.46841  eV     1   --> A'             
     e( 11 - 11) =      6.13376  eV     1   --> A'             
     e( 12 - 12) =      7.03438  eV     1   --> A'             
     e( 13 - 13) =      7.80306  eV     1   --> A''            
     e( 14 - 14) =      8.04665  eV     1   --> A'             
     e( 15 - 15) =      8.12589  eV     1   --> A''            
     e( 16 - 16) =      8.49008  eV     1   --> A'             
     e( 17 - 17) =     12.65526  eV     1   --> A''            
     e( 18 - 18) =     12.88857  eV     1   --> A'             
     e( 19 - 19) =     13.45838  eV     1   --> A''            
     e( 20 - 20) =     14.24153  eV     1   --> A'             
     e( 21 - 21) =     14.73250  eV     1   --> A'             
     e( 22 - 22) =     15.09104  eV     1   --> A''            

 **************************************************************************

 **************************************************************************

                    xk=(   0.39331,   0.47339,   0.00000  )

     Band symmetry, C_s (m)     point group:

     e(  1 -  1) =    -44.21735  eV     1   --> A'             
     e(  2 -  2) =    -44.20758  eV     1   --> A''            
     e(  3 -  3) =    -20.59365  eV     1   --> A'             
     e(  4 -  4) =    -20.58184  eV     1   --> A'             
     e(  5 -  5) =    -20.55797  eV     1   --> A''            
     e(  6 -  6) =    -20.51130  eV     1   --> A'             
     e(  7 -  7) =    -20.49294  eV     1   --> A''            
     e(  8 -  8) =    -20.46670  eV     1   --> A''            
     e(  9 -  9) =     -0.61638  eV     1   --> A'             
     e( 10 - 10) =     -0.46762  eV     1   --> A'             
     e( 11 - 11) =      6.16337  eV     1   --> A'             
     e( 12 - 12) =      7.03446  eV     1   --> A'             
     e( 13 - 13) =      7.81708  eV     1   --> A''            
     e( 14 - 14) =      7.97243  eV     1   --> A'             
     e( 15 - 15) =      8.11790  eV     1   --> A''            
     e( 16 - 16) =      8.47223  eV     1   --> A'             
     e( 17 - 17) =     12.67920  eV     1   --> A''            
     e( 18 - 18) =     12.94642  eV     1   --> A'             
     e( 19 - 19) =     13.43771  eV     1   --> A''            
     e( 20 - 20) =     14.21420  eV     1   --> A'             
     e( 21 - 21) =     14.70531  eV     1   --> A'             
     e( 22 - 22) =     15.08744  eV     1   --> A''            

 **************************************************************************

 **************************************************************************

                    xk=(   0.38998,   0.47916,   0.00000  )

     Band symmetry, C_s (m)     point group:

     e(  1 -  1) =    -44.21728  eV     1   --> A'             
     e(  2 -  2) =    -44.20752  eV     1   --> A''            
     e(  3 -  3) =    -20.59336  eV     1   --> A'             
     e(  4 -  4) =    -20.58048  eV     1   --> A'             
     e(  5 -  5) =    -20.55661  eV     1   --> A''            
     e(  6 -  6) =    -20.51362  eV     1   --> A'             
     e(  7 -  7) =    -20.49506  eV     1   --> A''            
     e(  8 -  8) =    -20.46661  eV     1   --> A''            
     e(  9 -  9) =     -0.60620  eV     1   --> A'             
     e( 10 - 10) =     -0.46693  eV     1   --> A'             
     e( 11 - 11) =      6.19372  eV     1   --> A'             
     e( 12 - 12) =      7.03443  eV     1   --> A'             
     e( 13 - 13) =      7.83101  eV     1   --> A''            
     e( 14 - 14) =      7.89940  eV     1   --> A'             
     e( 15 - 15) =      8.10996  eV     1   --> A''            
     e( 16 - 16) =      8.45493  eV     1   --> A'             
     e( 17 - 17) =     12.70332  eV     1   --> A''            
     e( 18 - 18) =     13.00400  eV     1   --> A'             
     e( 19 - 19) =     13.41680  eV     1   --> A''            
     e( 20 - 20) =     14.18738  eV     1   --> A'             
     e( 21 - 21) =     14.67736  eV     1   --> A'             
     e( 22 - 22) =     15.08379  eV     1   --> A''            

 **************************************************************************

 **************************************************************************

                    xk=(   0.38664,   0.48493,   0.00000  )

     Band symmetry, C_s (m)     point group:

     e(  1 -  1) =    -44.21721  eV     1   --> A'             
     e(  2 -  2) =    -44.20745  eV     1   --> A''            
     e(  3 -  3) =    -20.59309  eV     1   --> A'             
     e(  4 -  4) =    -20.57906  eV     1   --> A'             
     e(  5 -  5) =    -20.55522  eV     1   --> A''            
     e(  6 -  6) =    -20.51595  eV     1   --> A'             
     e(  7 -  7) =    -20.49720  eV     1   --> A''            
     e(  8 -  8) =    -20.46652  eV     1   --> A''            
     e(  9 -  9) =     -0.59611  eV     1   --> A'             
     e( 10 - 10) =     -0.46634  eV     1   --> A'             
     e( 11 - 11) =      6.22478  eV     1   --> A'             
     e( 12 - 12) =      7.03430  eV     1   --> A'             
     e( 13 - 13) =      7.82764  eV     1   --> A'             
     e( 14 - 14) =      7.84480  eV     1   --> A''            
     e( 15 - 15) =      8.10211  eV     1   --> A''            
     e( 16 - 16) =      8.43824  eV     1   --> A'             
     e( 17 - 17) =     12.72757  eV     1   --> A''            
     e( 18 - 18) =     13.06131  eV     1   --> A'             
     e( 19 - 19) =     13.39573  eV     1   --> A''            
     e( 20 - 20) =     14.16110  eV     1   --> A'             
     e( 21 - 21) =     14.64871  eV     1   --> A'             
     e( 22 - 22) =     15.08010  eV     1   --> A''            

 **************************************************************************

 **************************************************************************

                    xk=(   0.38331,   0.49071,   0.00000  )

     Band symmetry, C_s (m)     point group:

     e(  1 -  1) =    -44.21715  eV     1   --> A'             
     e(  2 -  2) =    -44.20739  eV     1   --> A''            
     e(  3 -  3) =    -20.59284  eV     1   --> A'             
     e(  4 -  4) =    -20.57758  eV     1   --> A'             
     e(  5 -  5) =    -20.55381  eV     1   --> A''            
     e(  6 -  6) =    -20.51830  eV     1   --> A'             
     e(  7 -  7) =    -20.49934  eV     1   --> A''            
     e(  8 -  8) =    -20.46643  eV     1   --> A''            
     e(  9 -  9) =     -0.58615  eV     1   --> A'             
     e( 10 - 10) =     -0.46588  eV     1   --> A'             
     e( 11 - 11) =      6.25651  eV     1   --> A'             
     e( 12 - 12) =      7.03407  eV     1   --> A'             
     e( 13 - 13) =      7.75726  eV     1   --> A'             
     e( 14 - 14) =      7.85841  eV     1   --> A''            
     e( 15 - 15) =      8.09434  eV     1   --> A''            
     e( 16 - 16) =      8.42224  eV     1   --> A'             
     e( 17 - 17) =     12.75187  eV     1   --> A''            
     e( 18 - 18) =     13.11833  eV     1   --> A'             
     e( 19 - 19) =     13.37454  eV     1   --> A''            
     e( 20 - 20) =     14.13539  eV     1   --> A'             
     e( 21 - 21) =     14.61938  eV     1   --> A'             
     e( 22 - 22) =     15.07640  eV     1   --> A''            

 **************************************************************************

 **************************************************************************

                    xk=(   0.37998,   0.49648,   0.00000  )

     Band symmetry, C_s (m)     point group:

     e(  1 -  1) =    -44.21708  eV     1   --> A'             
     e(  2 -  2) =    -44.20732  eV     1   --> A''            
     e(  3 -  3) =    -20.59261  eV     1   --> A'             
     e(  4 -  4) =    -20.57607  eV     1   --> A'             
     e(  5 -  5) =    -20.55236  eV     1   --> A''            
     e(  6 -  6) =    -20.52064  eV     1   --> A'             
     e(  7 -  7) =    -20.50149  eV     1   --> A''            
     e(  8 -  8) =    -20.46634  eV     1   --> A''            
     e(  9 -  9) =     -0.57636  eV     1   --> A'             
     e( 10 - 10) =     -0.46555  eV     1   --> A'             
     e( 11 - 11) =      6.28887  eV     1   --> A'             
     e( 12 - 12) =      7.03374  eV     1   --> A'             
     e( 13 - 13) =      7.68835  eV     1   --> A'             
     e( 14 - 14) =      7.87179  eV     1   --> A''            
     e( 15 - 15) =      8.08670  eV     1   --> A''            
     e( 16 - 16) =      8.40698  eV     1   --> A'             
     e( 17 - 17) =     12.77615  eV     1   --> A''            
     e( 18 - 18) =     13.17502  eV     1   --> A'             
     e( 19 - 19) =     13.35330  eV     1   --> A''            
     e( 20 - 20) =     14.11030  eV     1   --> A'             
     e( 21 - 21) =     14.58945  eV     1   --> A'             
     e( 22 - 22) =     15.07270  eV     1   --> A''            

 **************************************************************************

 **************************************************************************

                    xk=(   0.37664,   0.50225,   0.00000  )

     Band symmetry, C_s (m)     point group:

     e(  1 -  1) =    -44.21702  eV     1   --> A'             
     e(  2 -  2) =    -44.20727  eV     1   --> A''            
     e(  3 -  3) =    -20.59241  eV     1   --> A'             
     e(  4 -  4) =    -20.57450  eV     1   --> A'             
     e(  5 -  5) =    -20.55089  eV     1   --> A''            
     e(  6 -  6) =    -20.52298  eV     1   --> A'             
     e(  7 -  7) =    -20.50364  eV     1   --> A''            
     e(  8 -  8) =    -20.46626  eV     1   --> A''            
     e(  9 -  9) =     -0.56677  eV     1   --> A'             
     e( 10 - 10) =     -0.46535  eV     1   --> A'             
     e( 11 - 11) =      6.32180  eV     1   --> A'             
     e( 12 - 12) =      7.03332  eV     1   --> A'             
     e( 13 - 13) =      7.62102  eV     1   --> A'             
     e( 14 - 14) =      7.88487  eV     1   --> A''            
     e( 15 - 15) =      8.07919  eV     1   --> A''            
     e( 16 - 16) =      8.39253  eV     1   --> A'             
     e( 17 - 17) =     12.80035  eV     1   --> A''            
     e( 18 - 18) =     13.23135  eV     1   --> A'             
     e( 19 - 19) =     13.33208  eV     1   --> A''            
     e( 20 - 20) =     14.08583  eV     1   --> A'             
     e( 21 - 21) =     14.55895  eV     1   --> A'             
     e( 22 - 22) =     15.06905  eV     1   --> A''            

 **************************************************************************

 **************************************************************************

                    xk=(   0.37331,   0.50802,   0.00000  )

     Band symmetry, C_s (m)     point group:

     e(  1 -  1) =    -44.21697  eV     1   --> A'             
     e(  2 -  2) =    -44.20721  eV     1   --> A''            
     e(  3 -  3) =    -20.59222  eV     1   --> A'             
     e(  4 -  4) =    -20.57291  eV     1   --> A'             
     e(  5 -  5) =    -20.54939  eV     1   --> A''            
     e(  6 -  6) =    -20.52534  eV     1   --> A'             
     e(  7 -  7) =    -20.50578  eV     1   --> A''            
     e(  8 -  8) =    -20.46618  eV     1   --> A''            
     e(  9 -  9) =     -0.55743  eV     1   --> A'             
     e( 10 - 10) =     -0.46531  eV     1   --> A'             
     e( 11 - 11) =      6.35526  eV     1   --> A'             
     e( 12 - 12) =      7.03280  eV     1   --> A'             
     e( 13 - 13) =      7.55538  eV     1   --> A'             
     e( 14 - 14) =      7.89761  eV     1   --> A''            
     e( 15 - 15) =      8.07185  eV     1   --> A''            
     e( 16 - 16) =      8.37893  eV     1   --> A'             
     e( 17 - 17) =     12.82440  eV     1   --> A''            
     e( 18 - 18) =     13.28725  eV     1   --> A'             
     e( 19 - 19) =     13.31089  eV     1   --> A''            
     e( 20 - 20) =     14.06204  eV     1   --> A'             
     e( 21 - 21) =     14.52797  eV     1   --> A'             
     e( 22 - 22) =     15.06546  eV     1   --> A''            

 **************************************************************************

 **************************************************************************

                    xk=(   0.36997,   0.51380,   0.00000  )

     Band symmetry, C_s (m)     point group:

     e(  1 -  1) =    -44.21691  eV     1   --> A'             
     e(  2 -  2) =    -44.20716  eV     1   --> A''            
     e(  3 -  3) =    -20.59204  eV     1   --> A'             
     e(  4 -  4) =    -20.57127  eV     1   --> A'             
     e(  5 -  5) =    -20.54786  eV     1   --> A''            
     e(  6 -  6) =    -20.52767  eV     1   --> A'             
     e(  7 -  7) =    -20.50791  eV     1   --> A''            
     e(  8 -  8) =    -20.46611  eV     1   --> A''            
     e(  9 -  9) =     -0.54838  eV     1   --> A'             
     e( 10 - 10) =     -0.46543  eV     1   --> A'             
     e( 11 - 11) =      6.38914  eV     1   --> A'             
     e( 12 - 12) =      7.03221  eV     1   --> A'             
     e( 13 - 13) =      7.49160  eV     1   --> A'             
     e( 14 - 14) =      7.90995  eV     1   --> A''            
     e( 15 - 15) =      8.06468  eV     1   --> A''            
     e( 16 - 16) =      8.36624  eV     1   --> A'             
     e( 17 - 17) =     12.84823  eV     1   --> A''            
     e( 18 - 18) =     13.28982  eV     1   --> A''            
     e( 19 - 19) =     13.34268  eV     1   --> A'             
     e( 20 - 20) =     14.03891  eV     1   --> A'             
     e( 21 - 21) =     14.49659  eV     1   --> A'             
     e( 22 - 22) =     15.06198  eV     1   --> A''            

 **************************************************************************

 **************************************************************************

                    xk=(   0.36664,   0.51957,   0.00000  )

     Band symmetry, C_s (m)     point group:

     e(  1 -  1) =    -44.21686  eV     1   --> A'             
     e(  2 -  2) =    -44.20711  eV     1   --> A''            
     e(  3 -  3) =    -20.59188  eV     1   --> A'             
     e(  4 -  4) =    -20.56960  eV     1   --> A'             
     e(  5 -  5) =    -20.54631  eV     1   --> A''            
     e(  6 -  6) =    -20.52999  eV     1   --> A'             
     e(  7 -  7) =    -20.51004  eV     1   --> A''            
     e(  8 -  8) =    -20.46604  eV     1   --> A''            
     e(  9 -  9) =     -0.53965  eV     1   --> A'             
     e( 10 - 10) =     -0.46572  eV     1   --> A'             
     e( 11 - 11) =      6.42336  eV     1   --> A'             
     e( 12 - 12) =      7.03155  eV     1   --> A'             
     e( 13 - 13) =      7.42982  eV     1   --> A'             
     e( 14 - 14) =      7.92184  eV     1   --> A''            
     e( 15 - 15) =      8.05772  eV     1   --> A''            
     e( 16 - 16) =      8.35451  eV     1   --> A'             
     e( 17 - 17) =     12.87176  eV     1   --> A''            
     e( 18 - 18) =     13.26891  eV     1   --> A''            
     e( 19 - 19) =     13.39755  eV     1   --> A'             
     e( 20 - 20) =     14.01648  eV     1   --> A'             
     e( 21 - 21) =     14.46491  eV     1   --> A'             
     e( 22 - 22) =     15.05864  eV     1   --> A''            

 **************************************************************************

 **************************************************************************

                    xk=(   0.36331,   0.52534,   0.00000  )

     Band symmetry, C_s (m)     point group:

     e(  1 -  1) =    -44.21682  eV     1   --> A'             
     e(  2 -  2) =    -44.20705  eV     1   --> A''            
     e(  3 -  3) =    -20.59174  eV     1   --> A'             
     e(  4 -  4) =    -20.56790  eV     1   --> A'             
     e(  5 -  5) =    -20.54473  eV     1   --> A''            
     e(  6 -  6) =    -20.53229  eV     1   --> A'             
     e(  7 -  7) =    -20.51214  eV     1   --> A''            
     e(  8 -  8) =    -20.46597  eV     1   --> A''            
     e(  9 -  9) =     -0.53130  eV     1   --> A'             
     e( 10 - 10) =     -0.46619  eV     1   --> A'             
     e( 11 - 11) =      6.45778  eV     1   --> A'             
     e( 12 - 12) =      7.03083  eV     1   --> A'             
     e( 13 - 13) =      7.37023  eV     1   --> A'             
     e( 14 - 14) =      7.93322  eV     1   --> A''            
     e( 15 - 15) =      8.05099  eV     1   --> A''            
     e( 16 - 16) =      8.34377  eV     1   --> A'             
     e( 17 - 17) =     12.89493  eV     1   --> A''            
     e( 18 - 18) =     13.24821  eV     1   --> A''            
     e( 19 - 19) =     13.45172  eV     1   --> A'             
     e( 20 - 20) =     13.99477  eV     1   --> A'             
     e( 21 - 21) =     14.43306  eV     1   --> A'             
     e( 22 - 22) =     15.05548  eV     1   --> A''            

 **************************************************************************

 **************************************************************************

                    xk=(   0.35997,   0.53111,   0.00000  )

     Band symmetry, C_s (m)     point group:

     e(  1 -  1) =    -44.21678  eV     1   --> A'             
     e(  2 -  2) =    -44.20701  eV     1   --> A''            
     e(  3 -  3) =    -20.59161  eV     1   --> A'             
     e(  4 -  4) =    -20.56617  eV     1   --> A'             
     e(  5 -  5) =    -20.54313  eV     1   --> A''            
     e(  6 -  6) =    -20.53457  eV     1   --> A'             
     e(  7 -  7) =    -20.51422  eV     1   --> A''            
     e(  8 -  8) =    -20.46591  eV     1   --> A''            
     e(  9 -  9) =     -0.52336  eV     1   --> A'             
     e( 10 - 10) =     -0.46685  eV     1   --> A'             
     e( 11 - 11) =      6.49221  eV     1   --> A'             
     e( 12 - 12) =      7.03008  eV     1   --> A'             
     e( 13 - 13) =      7.31306  eV     1   --> A'             
     e( 14 - 14) =      7.94404  eV     1   --> A''            
     e( 15 - 15) =      8.04449  eV     1   --> A''            
     e( 16 - 16) =      8.33407  eV     1   --> A'             
     e( 17 - 17) =     12.91767  eV     1   --> A''            
     e( 18 - 18) =     13.22774  eV     1   --> A''            
     e( 19 - 19) =     13.50504  eV     1   --> A'             
     e( 20 - 20) =     13.97379  eV     1   --> A'             
     e( 21 - 21) =     14.40124  eV     1   --> A'             
     e( 22 - 22) =     15.05252  eV     1   --> A''            

 **************************************************************************

 **************************************************************************

                    xk=(   0.35664,   0.53689,   0.00000  )

     Band symmetry, C_s (m)     point group:

     e(  1 -  1) =    -44.21674  eV     1   --> A'             
     e(  2 -  2) =    -44.20697  eV     1   --> A''            
     e(  3 -  3) =    -20.59150  eV     1   --> A'             
     e(  4 -  4) =    -20.56441  eV     1   --> A'             
     e(  5 -  5) =    -20.54151  eV     1   --> A''            
     e(  6 -  6) =    -20.53682  eV     1   --> A'             
     e(  7 -  7) =    -20.51628  eV     1   --> A''            
     e(  8 -  8) =    -20.46586  eV     1   --> A''            
     e(  9 -  9) =     -0.51589  eV     1   --> A'             
     e( 10 - 10) =     -0.46771  eV     1   --> A'             
     e( 11 - 11) =      6.52639  eV     1   --> A'             
     e( 12 - 12) =      7.02932  eV     1   --> A'             
     e( 13 - 13) =      7.25864  eV     1   --> A'             
     e( 14 - 14) =      7.95423  eV     1   --> A''            
     e( 15 - 15) =      8.03825  eV     1   --> A''            
     e( 16 - 16) =      8.32544  eV     1   --> A'             
     e( 17 - 17) =     12.93991  eV     1   --> A''            
     e( 18 - 18) =     13.20757  eV     1   --> A''            
     e( 19 - 19) =     13.55726  eV     1   --> A'             
     e( 20 - 20) =     13.95355  eV     1   --> A'             
     e( 21 - 21) =     14.36966  eV     1   --> A'             
     e( 22 - 22) =     15.04981  eV     1   --> A''            

 **************************************************************************

 **************************************************************************

                    xk=(   0.35330,   0.54266,   0.00000  )

     Band symmetry, C_s (m)     point group:

     e(  1 -  1) =    -44.21670  eV     1   --> A'             
     e(  2 -  2) =    -44.20694  eV     1   --> A''            
     e(  3 -  3) =    -20.59141  eV     1   --> A'             
     e(  4 -  4) =    -20.56262  eV     1   --> A'             
     e(  5 -  5) =    -20.53987  eV     1   --> A''            
     e(  6 -  6) =    -20.53904  eV     1   --> A'             
     e(  7 -  7) =    -20.51831  eV     1   --> A''            
     e(  8 -  8) =    -20.46581  eV     1   --> A''            
     e(  9 -  9) =     -0.50891  eV     1   --> A'             
     e( 10 - 10) =     -0.46878  eV     1   --> A'             
     e( 11 - 11) =      6.55995  eV     1   --> A'             
     e( 12 - 12) =      7.02856  eV     1   --> A'             
     e( 13 - 13) =      7.20738  eV     1   --> A'             
     e( 14 - 14) =      7.96374  eV     1   --> A''            
     e( 15 - 15) =      8.03230  eV     1   --> A''            
     e( 16 - 16) =      8.31789  eV     1   --> A'             
     e( 17 - 17) =     12.96160  eV     1   --> A''            
     e( 18 - 18) =     13.18772  eV     1   --> A''            
     e( 19 - 19) =     13.60807  eV     1   --> A'             
     e( 20 - 20) =     13.93407  eV     1   --> A'             
     e( 21 - 21) =     14.33868  eV     1   --> A'             
     e( 22 - 22) =     15.04739  eV     1   --> A''            

 **************************************************************************

 **************************************************************************

                    xk=(   0.34997,   0.54843,   0.00000  )

     Band symmetry, C_s (m)     point group:

     e(  1 -  1) =    -44.21666  eV     1   --> A'             
     e(  2 -  2) =    -44.20692  eV     1   --> A''            
     e(  3 -  3) =    -20.59132  eV     1   --> A'             
     e(  4 -  4) =    -20.56081  eV     1   --> A'             
     e(  5 -  5) =    -20.54122  eV     1   --> A'             
     e(  6 -  6) =    -20.53822  eV     1   --> A''            
     e(  7 -  7) =    -20.52032  eV     1   --> A''            
     e(  8 -  8) =    -20.46577  eV     1   --> A''            
     e(  9 -  9) =     -0.50249  eV     1   --> A'             
     e( 10 - 10) =     -0.47007  eV     1   --> A'             
     e( 11 - 11) =      6.59232  eV     1   --> A'             
     e( 12 - 12) =      7.02784  eV     1   --> A'             
     e( 13 - 13) =      7.15990  eV     1   --> A'             
     e( 14 - 14) =      7.97249  eV     1   --> A''            
     e( 15 - 15) =      8.02663  eV     1   --> A''            
     e( 16 - 16) =      8.31148  eV     1   --> A'             
     e( 17 - 17) =     12.98266  eV     1   --> A''            
     e( 18 - 18) =     13.16823  eV     1   --> A''            
     e( 19 - 19) =     13.65698  eV     1   --> A'             
     e( 20 - 20) =     13.91537  eV     1   --> A'             
[...]

 **************************************************************************

                    xk=(   0.37000,   0.21362,   0.25043  )

     zone border point and non-symmorphic group 
     symmetry decomposition not available

 **************************************************************************

 **************************************************************************

                    xk=(   0.38000,   0.21939,   0.25043  )

     zone border point and non-symmorphic group 
     symmetry decomposition not available

 **************************************************************************

 **************************************************************************

                    xk=(   0.39000,   0.22517,   0.25043  )

     zone border point and non-symmorphic group 
     symmetry decomposition not available

 **************************************************************************

 **************************************************************************

                    xk=(   0.40000,   0.23094,   0.25043  )

     zone border point and non-symmorphic group 
     symmetry decomposition not available

 **************************************************************************

 **************************************************************************

                    xk=(   0.41000,   0.23671,   0.25043  )

     zone border point and non-symmorphic group 
     symmetry decomposition not available

 **************************************************************************

 **************************************************************************

                    xk=(   0.42000,   0.24249,   0.25043  )

     zone border point and non-symmorphic group 
     symmetry decomposition not available

 **************************************************************************

 **************************************************************************

                    xk=(   0.43000,   0.24826,   0.25043  )

     zone border point and non-symmorphic group 
     symmetry decomposition not available

 **************************************************************************

 **************************************************************************

                    xk=(   0.44000,   0.25403,   0.25043  )

     zone border point and non-symmorphic group 
     symmetry decomposition not available

 **************************************************************************

 **************************************************************************

                    xk=(   0.45000,   0.25981,   0.25043  )

     zone border point and non-symmorphic group 
     symmetry decomposition not available

 **************************************************************************

 **************************************************************************

                    xk=(   0.46000,   0.26558,   0.25043  )

     zone border point and non-symmorphic group 
     symmetry decomposition not available

 **************************************************************************

 **************************************************************************

                    xk=(   0.47000,   0.27135,   0.25043  )

     zone border point and non-symmorphic group 
     symmetry decomposition not available

 **************************************************************************

 **************************************************************************

                    xk=(   0.48000,   0.27713,   0.25043  )

     zone border point and non-symmorphic group 
     symmetry decomposition not available

 **************************************************************************

 **************************************************************************

                    xk=(   0.49000,   0.28290,   0.25043  )

     zone border point and non-symmorphic group 
     symmetry decomposition not available

 **************************************************************************

 **************************************************************************

                    xk=(   0.50000,   0.28868,   0.25043  )

     zone border point and non-symmorphic group 
     symmetry decomposition not available

 **************************************************************************

 **************************************************************************

                    xk=(   0.49667,   0.29445,   0.25043  )

     zone border point and non-symmorphic group 
     symmetry decomposition not available

 **************************************************************************

 **************************************************************************

                    xk=(   0.49333,   0.30022,   0.25043  )

     zone border point and non-symmorphic group 
     symmetry decomposition not available

 **************************************************************************

 **************************************************************************

                    xk=(   0.49000,   0.30599,   0.25043  )

     zone border point and non-symmorphic group 
     symmetry decomposition not available

 **************************************************************************

 **************************************************************************

                    xk=(   0.48666,   0.31176,   0.25043  )

     zone border point and non-symmorphic group 
     symmetry decomposition not available

 **************************************************************************

 **************************************************************************

                    xk=(   0.48333,   0.31754,   0.25043  )

     zone border point and non-symmorphic group 
     symmetry decomposition not available

 **************************************************************************

 **************************************************************************

                    xk=(   0.48000,   0.32331,   0.25043  )

     zone border point and non-symmorphic group 
     symmetry decomposition not available

 **************************************************************************

 **************************************************************************

                    xk=(   0.47666,   0.32908,   0.25043  )

     zone border point and non-symmorphic group 
     symmetry decomposition not available

 **************************************************************************

 **************************************************************************

                    xk=(   0.47333,   0.33485,   0.25043  )

     zone border point and non-symmorphic group 
     symmetry decomposition not available

 **************************************************************************

 **************************************************************************

                    xk=(   0.46999,   0.34063,   0.25043  )

     zone border point and non-symmorphic group 
     symmetry decomposition not available

 **************************************************************************

 **************************************************************************

                    xk=(   0.46666,   0.34640,   0.25043  )

     zone border point and non-symmorphic group 
     symmetry decomposition not available

 **************************************************************************

 **************************************************************************

                    xk=(   0.46333,   0.35217,   0.25043  )

     zone border point and non-symmorphic group 
     symmetry decomposition not available

 **************************************************************************

 **************************************************************************

                    xk=(   0.45999,   0.35794,   0.25043  )

     zone border point and non-symmorphic group 
     symmetry decomposition not available

 **************************************************************************

 **************************************************************************

                    xk=(   0.45666,   0.36372,   0.25043  )

     zone border point and non-symmorphic group 
     symmetry decomposition not available

 **************************************************************************

 **************************************************************************

                    xk=(   0.45332,   0.36949,   0.25043  )

     zone border point and non-symmorphic group 
     symmetry decomposition not available

 **************************************************************************

 **************************************************************************

                    xk=(   0.44999,   0.37526,   0.25043  )

     zone border point and non-symmorphic group 
     symmetry decomposition not available

 **************************************************************************

 **************************************************************************

                    xk=(   0.44666,   0.38103,   0.25043  )

     zone border point and non-symmorphic group 
     symmetry decomposition not available

 **************************************************************************

 **************************************************************************

                    xk=(   0.44332,   0.38681,   0.25043  )

     zone border point and non-symmorphic group 
     symmetry decomposition not available

 **************************************************************************

 **************************************************************************

                    xk=(   0.43999,   0.39258,   0.25043  )

     zone border point and non-symmorphic group 
     symmetry decomposition not available

 **************************************************************************

 **************************************************************************

                    xk=(   0.43665,   0.39835,   0.25043  )

     zone border point and non-symmorphic group 
     symmetry decomposition not available

 **************************************************************************

 **************************************************************************

                    xk=(   0.43332,   0.40412,   0.25043  )

     zone border point and non-symmorphic group 
     symmetry decomposition not available

 **************************************************************************

 **************************************************************************

                    xk=(   0.42999,   0.40989,   0.25043  )

     zone border point and non-symmorphic group 
     symmetry decomposition not available

 **************************************************************************

 **************************************************************************

                    xk=(   0.42665,   0.41567,   0.25043  )

     zone border point and non-symmorphic group 
     symmetry decomposition not available

 **************************************************************************

 **************************************************************************

                    xk=(   0.42332,   0.42144,   0.25043  )

     zone border point and non-symmorphic group 
     symmetry decomposition not available

 **************************************************************************

 **************************************************************************

                    xk=(   0.41998,   0.42721,   0.25043  )

     zone border point and non-symmorphic group 
     symmetry decomposition not available

 **************************************************************************

 **************************************************************************

                    xk=(   0.41665,   0.43298,   0.25043  )

     zone border point and non-symmorphic group 
     symmetry decomposition not available

 **************************************************************************

 **************************************************************************

                    xk=(   0.41332,   0.43876,   0.25043  )

     zone border point and non-symmorphic group 
     symmetry decomposition not available

 **************************************************************************

 **************************************************************************

                    xk=(   0.40998,   0.44453,   0.25043  )

     zone border point and non-symmorphic group 
     symmetry decomposition not available

 **************************************************************************

 **************************************************************************

                    xk=(   0.40665,   0.45030,   0.25043  )

     zone border point and non-symmorphic group 
     symmetry decomposition not available

 **************************************************************************

 **************************************************************************

                    xk=(   0.40331,   0.45607,   0.25043  )

     zone border point and non-symmorphic group 
     symmetry decomposition not available

 **************************************************************************

 **************************************************************************

                    xk=(   0.39998,   0.46185,   0.25043  )

     zone border point and non-symmorphic group 
     symmetry decomposition not available

 **************************************************************************

 **************************************************************************

                    xk=(   0.39665,   0.46762,   0.25043  )

     zone border point and non-symmorphic group 
     symmetry decomposition not available

 **************************************************************************

 **************************************************************************

                    xk=(   0.39331,   0.47339,   0.25043  )

     zone border point and non-symmorphic group 
     symmetry decomposition not available

 **************************************************************************

 **************************************************************************

                    xk=(   0.38998,   0.47916,   0.25043  )

     zone border point and non-symmorphic group 
     symmetry decomposition not available

 **************************************************************************

 **************************************************************************

                    xk=(   0.38664,   0.48493,   0.25043  )

     zone border point and non-symmorphic group 
     symmetry decomposition not available

 **************************************************************************

 **************************************************************************

                    xk=(   0.38331,   0.49071,   0.25043  )

     zone border point and non-symmorphic group 
     symmetry decomposition not available

 **************************************************************************

 **************************************************************************

                    xk=(   0.37998,   0.49648,   0.25043  )

     zone border point and non-symmorphic group 
     symmetry decomposition not available

 **************************************************************************

 **************************************************************************

                    xk=(   0.37664,   0.50225,   0.25043  )

     zone border point and non-symmorphic group 
     symmetry decomposition not available

 **************************************************************************

 **************************************************************************

                    xk=(   0.37331,   0.50802,   0.25043  )

     zone border point and non-symmorphic group 
     symmetry decomposition not available

 **************************************************************************

 **************************************************************************

                    xk=(   0.36997,   0.51380,   0.25043  )

     zone border point and non-symmorphic group 
     symmetry decomposition not available

 **************************************************************************

 **************************************************************************

                    xk=(   0.36664,   0.51957,   0.25043  )

     zone border point and non-symmorphic group 
     symmetry decomposition not available

 **************************************************************************

 **************************************************************************

                    xk=(   0.36331,   0.52534,   0.25043  )

     zone border point and non-symmorphic group 
     symmetry decomposition not available

 **************************************************************************

 **************************************************************************

                    xk=(   0.35997,   0.53111,   0.25043  )

     zone border point and non-symmorphic group 
     symmetry decomposition not available

 **************************************************************************

 **************************************************************************

                    xk=(   0.35664,   0.53689,   0.25043  )

     zone border point and non-symmorphic group 
     symmetry decomposition not available

 **************************************************************************

 **************************************************************************

                    xk=(   0.35330,   0.54266,   0.25043  )

     zone border point and non-symmorphic group 
     symmetry decomposition not available

 **************************************************************************

 **************************************************************************

                    xk=(   0.34997,   0.54843,   0.25043  )

     zone border point and non-symmorphic group 
     symmetry decomposition not available

 **************************************************************************

 **************************************************************************

                    xk=(   0.34664,   0.55420,   0.25043  )

     zone border point and non-symmorphic group 
     symmetry decomposition not available

 **************************************************************************

 **************************************************************************

                    xk=(   0.34330,   0.55998,   0.25043  )

     zone border point and non-symmorphic group 
     symmetry decomposition not available

 **************************************************************************

 **************************************************************************

                    xk=(   0.33997,   0.56575,   0.25043  )

     zone border point and non-symmorphic group 
     symmetry decomposition not available

 **************************************************************************

 **************************************************************************

                    xk=(   0.33663,   0.57152,   0.25043  )

     zone border point and non-symmorphic group 
     symmetry decomposition not available

 **************************************************************************

 **************************************************************************

                    xk=(   0.33330,   0.57729,   0.25043  )

     zone border point and non-symmorphic group 
     symmetry decomposition not available

 **************************************************************************

     BANDS        :   3m14.72s CPU   5m20.70s WALL


   This run was terminated on:  16:12:34   3Jun2023            

=------------------------------------------------------------------------------=
   JOB DONE.
=------------------------------------------------------------------------------=
