
     Program PWSCF v.7.1 starts on 27May2023 at 16:35:50 

     This program is part of the open-source Quantum ESPRESSO suite
     for quantum simulation of materials; please cite
         "P. Giannozzi et al., J. Phys.:Condens. Matter 21 395502 (2009);
         "P. Giannozzi et al., J. Phys.:Condens. Matter 29 465901 (2017);
         "P. Giannozzi et al., J. Chem. Phys. 152 154105 (2020);
          URL http://www.quantum-espresso.org", 
     in publications or presentations arising from this work. More details at
     http://www.quantum-espresso.org/quote

     Parallel version (MPI & OpenMP), running on      60 processor cores
     Number of MPI processes:                30
     Threads/MPI process:                     2

     MPI processes distributed on     5 nodes
     5414 MiB available memory on the printing compute node when the environment starts

     Reading input from Mg3Bi2.scf.in

     Current dimensions of program PWSCF are:
     Max number of different atomic species (ntypx) = 10
     Max number of k-points (npk) =  40000
     Max angular momentum in pseudopotentials (lmaxx) =  4
     file Mg.pbe-spnl-rrkjus_psl.1.0.0.UPF: wavefunction(s)  2P renormalized
     file Bi.pbe-dn-rrkjus_psl.1.0.0.UPF: wavefunction(s)  5D renormalized
     Message from routine setup:
     using ibrav=0 with symmetry is DISCOURAGED, use correct ibrav instead

     K-points division:     npool     =      30
     Subspace diagonalization in iterative solution of the eigenvalue problem:
     a serial algorithm will be used


     G-vector sticks info
     --------------------
     sticks:   dense  smooth     PW     G-vecs:    dense   smooth      PW
     Sum        1945     967    283               110773    39149    5955

     Using Slab Decomposition



     bravais-lattice index     =            0
     lattice parameter (alat)  =       8.8863  a.u.
     unit-cell volume          =     960.2083 (a.u.)^3
     number of atoms/cell      =            5
     number of atomic types    =            2
     number of electrons       =        60.00
     number of Kohn-Sham states=           40
     kinetic-energy cutoff     =      45.0000  Ry
     charge density cutoff     =     360.0000  Ry
     scf convergence threshold =      1.0E-09
     mixing beta               =       0.4000
     number of iterations used =            8  plain     mixing
     Exchange-correlation= PBE
                           (   1   4   3   4   0   0   0)

     celldm(1)=   8.886344  celldm(2)=   0.000000  celldm(3)=   0.000000
     celldm(4)=   0.000000  celldm(5)=   0.000000  celldm(6)=   0.000000

     crystal axes: (cart. coord. in units of alat)
               a(1) = (  -0.500000  -0.866025  -0.000000 )  
               a(2) = (  -0.500000   0.866025   0.000000 )  
               a(3) = (   0.000000   0.000000  -1.580030 )  

     reciprocal axes: (cart. coord. in units 2 pi/alat)
               b(1) = ( -1.000000 -0.577350 -0.000000 )  
               b(2) = ( -1.000000  0.577350  0.000000 )  
               b(3) = (  0.000000  0.000000 -0.632899 )  


     PseudoPot. # 1 for Mg read from file:
     ../pseudo/Mg.pbe-spnl-rrkjus_psl.1.0.0.UPF
     MD5 check sum: 9996ca2d31208a261ae42168ce6c5fae
     Pseudo is Ultrasoft + core correction, Zval = 10.0
     Generated using &quot;atomic&quot; code by A. Dal Corso  v.6.3
     Using radial grid of 1129 points,  4 beta functions with: 
                l(1) =   0
                l(2) =   0
                l(3) =   1
                l(4) =   1
     Q(r) pseudized with 0 coefficients 


     PseudoPot. # 2 for Bi read from file:
     ../pseudo/Bi.pbe-dn-rrkjus_psl.1.0.0.UPF
     MD5 check sum: f9abe7488ae443f53c935a63d0032572
     Pseudo is Ultrasoft + core correction, Zval = 15.0
     Generated using &quot;atomic&quot; code by A. Dal Corso  v.6.2.2
     Using radial grid of 1283 points,  6 beta functions with: 
                l(1) =   0
                l(2) =   0
                l(3) =   1
                l(4) =   1
                l(5) =   2
                l(6) =   2
     Q(r) pseudized with 0 coefficients 


     atomic species   valence    mass     pseudopotential
        Mg            10.00    24.30500     Mg( 1.00)
        Bi            15.00   208.98040     Bi( 1.00)

     12 Sym. Ops., with inversion, found


                                    s                        frac. trans.

      isym =  1     identity                                     

 cryst.   s( 1) = (     1          0          0      )
                  (     0          1          0      )
                  (     0          0          1      )

 cart.    s( 1) = (  1.0000000 -0.0000000  0.0000000 )
                  ( -0.0000000  1.0000000  0.0000000 )
                  (  0.0000000  0.0000000  1.0000000 )


      isym =  2     180 deg rotation - cart. axis [1,0,0]        

 cryst.   s( 2) = (     0          1          0      )
                  (     1          0          0      )
                  (     0          0         -1      )

 cart.    s( 2) = (  1.0000000  0.0000000  0.0000000 )
                  ( -0.0000000 -1.0000000  0.0000000 )
                  (  0.0000000  0.0000000 -1.0000000 )


      isym =  3     120 deg rotation - cryst. axis [0,0,1]       

 cryst.   s( 3) = (    -1         -1          0      )
                  (     1          0          0      )
                  (     0          0          1      )

 cart.    s( 3) = ( -0.5000000 -0.8660254  0.0000000 )
                  (  0.8660254 -0.5000000  0.0000000 )
                  (  0.0000000  0.0000000  1.0000000 )


      isym =  4     120 deg rotation - cryst. axis [0,0,-1]      

 cryst.   s( 4) = (     0          1          0      )
                  (    -1         -1          0      )
                  (     0          0          1      )

 cart.    s( 4) = ( -0.5000000  0.8660254  0.0000000 )
                  ( -0.8660254 -0.5000000  0.0000000 )
                  (  0.0000000  0.0000000  1.0000000 )


      isym =  5     180 deg rotation - cryst. axis [0,1,0]       

 cryst.   s( 5) = (    -1         -1          0      )
                  (     0          1          0      )
                  (     0          0         -1      )

 cart.    s( 5) = ( -0.5000000 -0.8660254  0.0000000 )
                  ( -0.8660254  0.5000000  0.0000000 )
                  (  0.0000000  0.0000000 -1.0000000 )


      isym =  6     180 deg rotation - cryst. axis [1,1,0]       

 cryst.   s( 6) = (     1          0          0      )
                  (    -1         -1          0      )
                  (     0          0         -1      )

 cart.    s( 6) = ( -0.5000000  0.8660254  0.0000000 )
                  (  0.8660254  0.5000000  0.0000000 )
                  (  0.0000000  0.0000000 -1.0000000 )


      isym =  7     inversion                                    

 cryst.   s( 7) = (    -1          0          0      )
                  (     0         -1          0      )
                  (     0          0         -1      )

 cart.    s( 7) = ( -1.0000000  0.0000000  0.0000000 )
                  (  0.0000000 -1.0000000  0.0000000 )
                  (  0.0000000  0.0000000 -1.0000000 )


      isym =  8     inv. 180 deg rotation - cart. axis [1,0,0]   

 cryst.   s( 8) = (     0         -1          0      )
                  (    -1          0          0      )
                  (     0          0          1      )

 cart.    s( 8) = ( -1.0000000 -0.0000000  0.0000000 )
                  (  0.0000000  1.0000000  0.0000000 )
                  (  0.0000000  0.0000000  1.0000000 )


      isym =  9     inv. 120 deg rotation - cryst. axis [0,0,1]  

 cryst.   s( 9) = (     1          1          0      )
                  (    -1          0          0      )
                  (     0          0         -1      )

 cart.    s( 9) = (  0.5000000  0.8660254  0.0000000 )
                  ( -0.8660254  0.5000000  0.0000000 )
                  (  0.0000000  0.0000000 -1.0000000 )


      isym = 10     inv. 120 deg rotation - cryst. axis [0,0,-1] 

 cryst.   s(10) = (     0         -1          0      )
                  (     1          1          0      )
                  (     0          0         -1      )

 cart.    s(10) = (  0.5000000 -0.8660254  0.0000000 )
                  (  0.8660254  0.5000000  0.0000000 )
                  (  0.0000000  0.0000000 -1.0000000 )


      isym = 11     inv. 180 deg rotation - cryst. axis [0,1,0]  

 cryst.   s(11) = (     1          1          0      )
                  (     0         -1          0      )
                  (     0          0          1      )

 cart.    s(11) = (  0.5000000  0.8660254  0.0000000 )
                  (  0.8660254 -0.5000000  0.0000000 )
                  (  0.0000000  0.0000000  1.0000000 )


      isym = 12     inv. 180 deg rotation - cryst. axis [1,1,0]  

 cryst.   s(12) = (    -1          0          0      )
                  (     1          1          0      )
                  (     0          0          1      )

 cart.    s(12) = (  0.5000000 -0.8660254  0.0000000 )
                  ( -0.8660254 -0.5000000  0.0000000 )
                  (  0.0000000  0.0000000  1.0000000 )


   Cartesian axes

     site n.     atom                  positions (alat units)
         1           Mg  tau(   1) = (   0.0000000   0.0000000   0.0000000  )
         2           Mg  tau(   2) = (  -0.5000000  -0.2886751  -0.5867145  )
         3           Mg  tau(   3) = (  -0.5000000   0.2886751  -0.9933158  )
         4           Bi  tau(   4) = (  -0.5000000  -0.2886751  -1.2306453  )
         5           Bi  tau(   5) = (  -0.5000000   0.2886751  -0.3493850  )

   Crystallographic axes

     site n.     atom                  positions (cryst. coord.)
         1           Mg  tau(   1) = ( -0.0000000  0.0000000  0.0000000  )
         2           Mg  tau(   2) = (  0.6666667  0.3333333  0.3713312  )
         3           Mg  tau(   3) = (  0.3333333  0.6666667  0.6286688  )
         4           Bi  tau(   4) = (  0.6666667  0.3333333  0.7788745  )
         5           Bi  tau(   5) = (  0.3333333  0.6666667  0.2211255  )

     number of k points=    40  Marzari-Vanderbilt smearing, width (Ry)=  0.0147
                       cart. coord. in units 2pi/alat
        k(    1) = (   0.0000000   0.0000000   0.0000000), wk =   0.0062500
        k(    2) = (   0.0000000   0.0000000  -0.1265799), wk =   0.0125000
        k(    3) = (   0.0000000   0.0000000  -0.2531597), wk =   0.0125000
        k(    4) = (  -0.1250000   0.0721688   0.0000000), wk =   0.0375000
        k(    5) = (  -0.1250000   0.0721688  -0.1265799), wk =   0.0375000
        k(    6) = (  -0.1250000   0.0721688  -0.2531597), wk =   0.0375000
        k(    7) = (  -0.2500000   0.1443376   0.0000000), wk =   0.0375000
        k(    8) = (  -0.2500000   0.1443376  -0.1265799), wk =   0.0375000
        k(    9) = (  -0.2500000   0.1443376  -0.2531597), wk =   0.0375000
        k(   10) = (  -0.3750000   0.2165064   0.0000000), wk =   0.0375000
        k(   11) = (  -0.3750000   0.2165064  -0.1265799), wk =   0.0375000
        k(   12) = (  -0.3750000   0.2165064  -0.2531597), wk =   0.0375000
        k(   13) = (   0.5000000  -0.2886751  -0.0000000), wk =   0.0187500
        k(   14) = (   0.5000000  -0.2886751  -0.1265799), wk =   0.0375000
        k(   15) = (   0.5000000  -0.2886751  -0.2531597), wk =   0.0375000
        k(   16) = (  -0.2500000   0.0000000   0.0000000), wk =   0.0375000
        k(   17) = (  -0.2500000   0.0000000  -0.1265799), wk =   0.0750000
        k(   18) = (  -0.2500000   0.0000000  -0.2531597), wk =   0.0750000
        k(   19) = (  -0.3750000   0.0721688   0.0000000), wk =   0.0750000
        k(   20) = (  -0.3750000   0.0721688  -0.1265799), wk =   0.0750000
        k(   21) = (  -0.3750000   0.0721688  -0.2531597), wk =   0.0750000
        k(   22) = (  -0.5000000   0.1443376   0.0000000), wk =   0.0750000
        k(   23) = (  -0.5000000   0.1443376  -0.1265799), wk =   0.0750000
        k(   24) = (  -0.5000000   0.1443376  -0.2531597), wk =   0.0750000
        k(   25) = (  -0.5000000   0.0000000   0.0000000), wk =   0.0375000
        k(   26) = (  -0.5000000   0.0000000  -0.1265799), wk =   0.0750000
        k(   27) = (  -0.5000000   0.0000000  -0.2531597), wk =   0.0750000
        k(   28) = (  -0.6250000   0.0721688   0.0000000), wk =   0.0375000
        k(   29) = (  -0.6250000   0.0721688  -0.1265799), wk =   0.0750000
        k(   30) = (  -0.6250000   0.0721688  -0.2531597), wk =   0.0750000
        k(   31) = (   0.1250000   0.0721688   0.1265799), wk =   0.0375000
        k(   32) = (   0.1250000   0.0721688   0.2531597), wk =   0.0375000
        k(   33) = (   0.2500000   0.1443376   0.1265799), wk =   0.0375000
        k(   34) = (   0.2500000   0.1443376   0.2531597), wk =   0.0375000
        k(   35) = (   0.3750000   0.2165064   0.1265799), wk =   0.0375000
        k(   36) = (   0.3750000   0.2165064   0.2531597), wk =   0.0375000
        k(   37) = (   0.3750000   0.0721688   0.1265799), wk =   0.0750000
        k(   38) = (   0.3750000   0.0721688   0.2531597), wk =   0.0750000
        k(   39) = (   0.5000000   0.1443376   0.1265799), wk =   0.0750000
        k(   40) = (   0.5000000   0.1443376   0.2531597), wk =   0.0750000

                       cryst. coord.
        k(    1) = (  -0.0000000   0.0000000   0.0000000), wk =   0.0062500
        k(    2) = (   0.0000000   0.0000000   0.2000000), wk =   0.0125000
        k(    3) = (   0.0000000   0.0000000   0.4000000), wk =   0.0125000
        k(    4) = (   0.0000000   0.1250000   0.0000000), wk =   0.0375000
        k(    5) = (   0.0000000   0.1250000   0.2000000), wk =   0.0375000
        k(    6) = (   0.0000000   0.1250000   0.4000000), wk =   0.0375000
        k(    7) = (   0.0000000   0.2500000   0.0000000), wk =   0.0375000
        k(    8) = (   0.0000000   0.2500000   0.2000000), wk =   0.0375000
        k(    9) = (   0.0000000   0.2500000   0.4000000), wk =   0.0375000
        k(   10) = (   0.0000000   0.3750000   0.0000000), wk =   0.0375000
        k(   11) = (   0.0000000   0.3750000   0.2000000), wk =   0.0375000
        k(   12) = (   0.0000000   0.3750000   0.4000000), wk =   0.0375000
        k(   13) = (  -0.0000000  -0.5000000   0.0000000), wk =   0.0187500
        k(   14) = (  -0.0000000  -0.5000000   0.2000000), wk =   0.0375000
        k(   15) = (  -0.0000000  -0.5000000   0.4000000), wk =   0.0375000
        k(   16) = (   0.1250000   0.1250000   0.0000000), wk =   0.0375000
        k(   17) = (   0.1250000   0.1250000   0.2000000), wk =   0.0750000
        k(   18) = (   0.1250000   0.1250000   0.4000000), wk =   0.0750000
        k(   19) = (   0.1250000   0.2500000   0.0000000), wk =   0.0750000
        k(   20) = (   0.1250000   0.2500000   0.2000000), wk =   0.0750000
        k(   21) = (   0.1250000   0.2500000   0.4000000), wk =   0.0750000
        k(   22) = (   0.1250000   0.3750000   0.0000000), wk =   0.0750000
        k(   23) = (   0.1250000   0.3750000   0.2000000), wk =   0.0750000
        k(   24) = (   0.1250000   0.3750000   0.4000000), wk =   0.0750000
        k(   25) = (   0.2500000   0.2500000   0.0000000), wk =   0.0375000
        k(   26) = (   0.2500000   0.2500000   0.2000000), wk =   0.0750000
        k(   27) = (   0.2500000   0.2500000   0.4000000), wk =   0.0750000
        k(   28) = (   0.2500000   0.3750000   0.0000000), wk =   0.0375000
        k(   29) = (   0.2500000   0.3750000   0.2000000), wk =   0.0750000
        k(   30) = (   0.2500000   0.3750000   0.4000000), wk =   0.0750000
        k(   31) = (  -0.1250000  -0.0000000  -0.2000000), wk =   0.0375000
        k(   32) = (  -0.1250000  -0.0000000  -0.4000000), wk =   0.0375000
        k(   33) = (  -0.2500000  -0.0000000  -0.2000000), wk =   0.0375000
        k(   34) = (  -0.2500000  -0.0000000  -0.4000000), wk =   0.0375000
        k(   35) = (  -0.3750000  -0.0000000  -0.2000000), wk =   0.0375000
        k(   36) = (  -0.3750000  -0.0000000  -0.4000000), wk =   0.0375000
        k(   37) = (  -0.2500000  -0.1250000  -0.2000000), wk =   0.0750000
        k(   38) = (  -0.2500000  -0.1250000  -0.4000000), wk =   0.0750000
        k(   39) = (  -0.3750000  -0.1250000  -0.2000000), wk =   0.0750000
        k(   40) = (  -0.3750000  -0.1250000  -0.4000000), wk =   0.0750000

     Dense  grid:   110773 G-vectors     FFT dimensions: (  54,  54,  90)

     Smooth grid:    39149 G-vectors     FFT dimensions: (  40,  40,  60)

     Dynamical RAM for                 wfc:       2.99 MB

     Dynamical RAM for     wfc (w. buffer):       8.96 MB

     Dynamical RAM for           str. fact:       3.38 MB

     Dynamical RAM for           local pot:       0.00 MB

     Dynamical RAM for          nlocal pot:       4.48 MB

     Dynamical RAM for                qrad:       3.05 MB

     Dynamical RAM for          rho,v,vnew:      11.08 MB

     Dynamical RAM for               rhoin:       3.69 MB

     Dynamical RAM for            rho*nmix:      27.04 MB

     Dynamical RAM for           G-vectors:       6.64 MB

     Dynamical RAM for          h,s,v(r/c):       0.29 MB

     Dynamical RAM for          <psi|beta>:       0.04 MB

     Dynamical RAM for                 psi:       5.98 MB

     Dynamical RAM for                hpsi:       5.98 MB

     Dynamical RAM for                spsi:       5.98 MB

     Dynamical RAM for      wfcinit/wfcrot:       6.01 MB

     Dynamical RAM for           addusdens:      12.28 MB

     Dynamical RAM for          addusforce:      11.73 MB

     Dynamical RAM for         addusstress:      12.14 MB

     Estimated static dynamical RAM per process >      56.36 MB

     Estimated max dynamical RAM per process >     101.66 MB

     Estimated total dynamical RAM >       2.21 GB

     Check: negative core charge=   -0.000010

     Initial potential from superposition of free atoms

     starting charge      59.9956, renormalised to      60.0000
     Starting wfcs are   33 randomized atomic wfcs +    7 random wfcs

     total cpu time spent up to now is        2.6 secs

     per-process dynamical memory:   110.9 Mb

     Self-consistent Calculation

     iteration #  1     ecut=    45.00 Ry     beta= 0.40
     Davidson diagonalization with overlap

---- Real-time Memory Report at c_bands before calling an iterative solver
           114 MiB given to the printing process from OS
           108 MiB allocation reported by mallinfo(arena+hblkhd)
          5005 MiB available memory on the node where the printing process lives
------------------
     ethr =  1.00E-02,  avg # of iterations =  5.3

     Threshold (ethr) on eigenvalues was too large:
     Diagonalizing with lowered threshold

     Davidson diagonalization with overlap

---- Real-time Memory Report at c_bands before calling an iterative solver
           130 MiB given to the printing process from OS
           131 MiB allocation reported by mallinfo(arena+hblkhd)
          4884 MiB available memory on the node where the printing process lives
------------------
     ethr =  1.98E-04,  avg # of iterations =  3.8

     total cpu time spent up to now is        5.9 secs

     total energy              =    -690.55578990 Ry
     estimated scf accuracy    <       0.11693707 Ry

     iteration #  2     ecut=    45.00 Ry     beta= 0.40
     Davidson diagonalization with overlap

---- Real-time Memory Report at c_bands before calling an iterative solver
           150 MiB given to the printing process from OS
           131 MiB allocation reported by mallinfo(arena+hblkhd)
          4794 MiB available memory on the node where the printing process lives
------------------
     ethr =  1.95E-04,  avg # of iterations =  2.1

     total cpu time spent up to now is        7.6 secs

     total energy              =    -690.56252994 Ry
     estimated scf accuracy    <       0.01691255 Ry

     iteration #  3     ecut=    45.00 Ry     beta= 0.40
     Davidson diagonalization with overlap

---- Real-time Memory Report at c_bands before calling an iterative solver
           153 MiB given to the printing process from OS
           140 MiB allocation reported by mallinfo(arena+hblkhd)
          4783 MiB available memory on the node where the printing process lives
------------------
     ethr =  2.82E-05,  avg # of iterations =  6.3

     total cpu time spent up to now is        9.4 secs

     total energy              =    -690.56371896 Ry
     estimated scf accuracy    <       0.00303182 Ry

     iteration #  4     ecut=    45.00 Ry     beta= 0.40
     Davidson diagonalization with overlap

---- Real-time Memory Report at c_bands before calling an iterative solver
           157 MiB given to the printing process from OS
           140 MiB allocation reported by mallinfo(arena+hblkhd)
          4783 MiB available memory on the node where the printing process lives
------------------
     ethr =  5.05E-06,  avg # of iterations =  5.2

     total cpu time spent up to now is       11.2 secs

     total energy              =    -690.56420775 Ry
     estimated scf accuracy    <       0.00085847 Ry

     iteration #  5     ecut=    45.00 Ry     beta= 0.40
     Davidson diagonalization with overlap

---- Real-time Memory Report at c_bands before calling an iterative solver
           159 MiB given to the printing process from OS
           140 MiB allocation reported by mallinfo(arena+hblkhd)
          4783 MiB available memory on the node where the printing process lives
------------------
     ethr =  1.43E-06,  avg # of iterations =  2.4

     total cpu time spent up to now is       12.9 secs

     total energy              =    -690.56430655 Ry
     estimated scf accuracy    <       0.00005019 Ry

     iteration #  6     ecut=    45.00 Ry     beta= 0.40
     Davidson diagonalization with overlap

---- Real-time Memory Report at c_bands before calling an iterative solver
           161 MiB given to the printing process from OS
           140 MiB allocation reported by mallinfo(arena+hblkhd)
          4783 MiB available memory on the node where the printing process lives
------------------
     ethr =  8.36E-08,  avg # of iterations =  3.3

     total cpu time spent up to now is       14.6 secs

     total energy              =    -690.56431460 Ry
     estimated scf accuracy    <       0.00000261 Ry

     iteration #  7     ecut=    45.00 Ry     beta= 0.40
     Davidson diagonalization with overlap

---- Real-time Memory Report at c_bands before calling an iterative solver
           161 MiB given to the printing process from OS
           140 MiB allocation reported by mallinfo(arena+hblkhd)
          4782 MiB available memory on the node where the printing process lives
------------------
     ethr =  4.36E-09,  avg # of iterations =  3.3

     total cpu time spent up to now is       16.4 secs

     total energy              =    -690.56431539 Ry
     estimated scf accuracy    <       0.00000034 Ry

     iteration #  8     ecut=    45.00 Ry     beta= 0.40
     Davidson diagonalization with overlap

---- Real-time Memory Report at c_bands before calling an iterative solver
           162 MiB given to the printing process from OS
           141 MiB allocation reported by mallinfo(arena+hblkhd)
          4781 MiB available memory on the node where the printing process lives
------------------
     ethr =  5.70E-10,  avg # of iterations =  3.0

     total cpu time spent up to now is       18.1 secs

     total energy              =    -690.56431552 Ry
     estimated scf accuracy    <       0.00000002 Ry

     iteration #  9     ecut=    45.00 Ry     beta= 0.40
     Davidson diagonalization with overlap

---- Real-time Memory Report at c_bands before calling an iterative solver
           163 MiB given to the printing process from OS
           143 MiB allocation reported by mallinfo(arena+hblkhd)
          4780 MiB available memory on the node where the printing process lives
------------------
     ethr =  2.50E-11,  avg # of iterations =  4.1

     total cpu time spent up to now is       19.9 secs

     total energy              =    -690.56431554 Ry
     estimated scf accuracy    <          4.1E-09 Ry

     iteration # 10     ecut=    45.00 Ry     beta= 0.40
     Davidson diagonalization with overlap

---- Real-time Memory Report at c_bands before calling an iterative solver
           165 MiB given to the printing process from OS
           144 MiB allocation reported by mallinfo(arena+hblkhd)
          4778 MiB available memory on the node where the printing process lives
------------------
     ethr =  6.78E-12,  avg # of iterations =  2.2

     total cpu time spent up to now is       21.8 secs

     End of self-consistent calculation

          k = 0.0000 0.0000 0.0000 (  4925 PWs)   bands (ev):

   -69.7593 -69.1605 -69.1596 -36.5109 -36.5073 -36.5073 -35.9135 -35.9135
   -35.9104 -35.9104 -35.9092 -35.9088 -14.7274 -14.7274 -14.7269 -14.7269
   -14.7173 -14.7163 -14.6980 -14.6980 -14.6880 -14.6880  -3.9691  -3.0899
     2.6305   6.4565   6.4565   7.1589   7.1589   7.2099   7.4085   8.2238
    10.5192  10.5192  11.2167  11.4351  11.4351  11.8484  12.5584  12.5631

     occupation numbers 
     1.0000   1.0000   1.0000   1.0000   1.0000   1.0000   1.0000   1.0000
     1.0000   1.0000   1.0000   1.0000   1.0000   1.0000   1.0000   1.0000
     1.0000   1.0000   1.0000   1.0000   1.0000   1.0000   1.0000   1.0000
     1.0000   1.0000   1.0000   0.9314   0.9314   0.7757   0.1438   0.0000
     0.0000   0.0000   0.0000   0.0000   0.0000   0.0000   0.0000   0.0000

          k = 0.0000 0.0000-0.1266 (  4914 PWs)   bands (ev):

   -69.7593 -69.1604 -69.1597 -36.5098 -36.5075 -36.5075 -35.9142 -35.9142
   -35.9102 -35.9102 -35.9097 -35.9062 -14.7282 -14.7282 -14.7260 -14.7260
   -14.7176 -14.7160 -14.6980 -14.6980 -14.6880 -14.6880  -3.9087  -3.1858
     2.9059   6.0418   6.5188   6.5188   7.0905   7.0905   8.0928   8.5318
    10.3229  10.3229  11.0666  11.3558  11.3558  11.6043  12.5453  12.5455

     occupation numbers 
     1.0000   1.0000   1.0000   1.0000   1.0000   1.0000   1.0000   1.0000
     1.0000   1.0000   1.0000   1.0000   1.0000   1.0000   1.0000   1.0000
     1.0000   1.0000   1.0000   1.0000   1.0000   1.0000   1.0000   1.0000
     1.0000   1.0000   1.0000   1.0000   1.0546   1.0546   0.0000   0.0000
     0.0000   0.0000   0.0000   0.0000   0.0000   0.0000   0.0000   0.0000

          k = 0.0000 0.0000-0.2532 (  4944 PWs)   bands (ev):

   -69.7594 -69.1605 -69.1597 -36.5115 -36.5080 -36.5080 -35.9150 -35.9150
   -35.9114 -35.9103 -35.9103 -35.9078 -14.7288 -14.7288 -14.7253 -14.7253
   -14.7178 -14.7157 -14.6981 -14.6981 -14.6881 -14.6881  -3.7596  -3.3906
     3.6483   4.7853   6.6874   6.6874   6.9099   6.9099   8.4062   8.7767
    10.1438  10.1438  10.8162  11.0646  11.0646  11.5892  13.0749  13.4096

     occupation numbers 
     1.0000   1.0000   1.0000   1.0000   1.0000   1.0000   1.0000   1.0000
     1.0000   1.0000   1.0000   1.0000   1.0000   1.0000   1.0000   1.0000
     1.0000   1.0000   1.0000   1.0000   1.0000   1.0000   1.0000   1.0000
     1.0000   1.0000   1.0008   1.0008   1.0402   1.0402   0.0000   0.0000
     0.0000   0.0000   0.0000   0.0000   0.0000   0.0000   0.0000   0.0000

          k =-0.1250 0.0722 0.0000 (  4905 PWs)   bands (ev):

   -69.7593 -69.1604 -69.1596 -36.5102 -36.5071 -36.5071 -35.9135 -35.9134
   -35.9109 -35.9102 -35.9084 -35.9075 -14.7285 -14.7277 -14.7263 -14.7257
   -14.7168 -14.7158 -14.6977 -14.6974 -14.6885 -14.6876  -3.8880  -3.0521
     2.7629   5.4055   5.8862   6.1584   7.1690   7.3349   8.5261   8.9394
     9.9445  10.6935  10.7877  11.3762  11.4464  11.6301  12.4155  12.5769

     occupation numbers 
     1.0000   1.0000   1.0000   1.0000   1.0000   1.0000   1.0000   1.0000
     1.0000   1.0000   1.0000   1.0000   1.0000   1.0000   1.0000   1.0000
     1.0000   1.0000   1.0000   1.0000   1.0000   1.0000   1.0000   1.0000
     1.0000   1.0000   1.0000   1.0000   0.9044   0.3269   0.0000   0.0000
     0.0000   0.0000   0.0000   0.0000   0.0000   0.0000   0.0000   0.0000

          k =-0.1250 0.0722-0.1266 (  4919 PWs)   bands (ev):

   -69.7593 -69.1604 -69.1597 -36.5109 -36.5076 -36.5070 -35.9139 -35.9135
   -35.9117 -35.9099 -35.9094 -35.9075 -14.7293 -14.7270 -14.7263 -14.7256
   -14.7170 -14.7156 -14.6976 -14.6976 -14.6886 -14.6875  -3.8303  -3.1416
     3.0054   5.3769   5.6449   6.2579   6.9982   7.0054   8.7535   8.9137
    10.0474  10.8211  10.8598  10.9714  11.6532  11.9554  12.3403  12.4544

     occupation numbers 
     1.0000   1.0000   1.0000   1.0000   1.0000   1.0000   1.0000   1.0000
     1.0000   1.0000   1.0000   1.0000   1.0000   1.0000   1.0000   1.0000
     1.0000   1.0000   1.0000   1.0000   1.0000   1.0000   1.0000   1.0000
     1.0000   1.0000   1.0000   1.0000   1.0782   1.0802   0.0000   0.0000
     0.0000   0.0000   0.0000   0.0000   0.0000   0.0000   0.0000   0.0000

          k =-0.1250 0.0722-0.2532 (  4916 PWs)   bands (ev):

   -69.7593 -69.1604 -69.1597 -36.5104 -36.5076 -36.5070 -35.9143 -35.9136
   -35.9111 -35.9103 -35.9093 -35.9065 -14.7295 -14.7279 -14.7253 -14.7253
   -14.7172 -14.7153 -14.6977 -14.6976 -14.6886 -14.6876  -3.6864  -3.3350
     3.6503   4.6110   5.8631   6.4510   6.4834   6.7124   8.8659   9.1966
    10.0199  10.5121  10.6405  11.4681  11.5076  12.1459  12.6686  12.7943

     occupation numbers 
     1.0000   1.0000   1.0000   1.0000   1.0000   1.0000   1.0000   1.0000
     1.0000   1.0000   1.0000   1.0000   1.0000   1.0000   1.0000   1.0000
     1.0000   1.0000   1.0000   1.0000   1.0000   1.0000   1.0000   1.0000
     1.0000   1.0000   1.0000   1.0000   1.0000   1.0015   0.0000   0.0000
     0.0000   0.0000   0.0000   0.0000   0.0000   0.0000   0.0000   0.0000

          k =-0.2500 0.1443 0.0000 (  4908 PWs)   bands (ev):

   -69.7593 -69.1604 -69.1597 -36.5106 -36.5076 -36.5069 -35.9143 -35.9135
   -35.9117 -35.9104 -35.9081 -35.9073 -14.7304 -14.7277 -14.7261 -14.7237
   -14.7158 -14.7147 -14.6967 -14.6959 -14.6898 -14.6864  -3.6679  -2.9679
     3.1474   4.0924   4.8028   5.6897   6.8072   6.9970   8.4116   9.1303
    10.1152  10.5841  11.0004  11.3456  11.9790  12.1311  12.7976  13.6471

     occupation numbers 
     1.0000   1.0000   1.0000   1.0000   1.0000   1.0000   1.0000   1.0000
     1.0000   1.0000   1.0000   1.0000   1.0000   1.0000   1.0000   1.0000
     1.0000   1.0000   1.0000   1.0000   1.0000   1.0000   1.0000   1.0000
     1.0000   1.0000   1.0000   1.0000   1.0095   1.0779   0.0000   0.0000
     0.0000   0.0000   0.0000   0.0000   0.0000   0.0000   0.0000   0.0000

          k =-0.2500 0.1443-0.1266 (  4907 PWs)   bands (ev):

   -69.7593 -69.1603 -69.1597 -36.5107 -36.5072 -36.5069 -35.9139 -35.9133
   -35.9118 -35.9099 -35.9085 -35.9073 -14.7309 -14.7267 -14.7256 -14.7246
   -14.7160 -14.7144 -14.6964 -14.6960 -14.6900 -14.6864  -3.6175  -3.0381
     3.1867   4.2684   4.7252   5.7903   6.7670   6.7808   7.9740   9.0839
    10.5703  10.9501  11.1415  11.4893  11.8495  12.3131  12.9893  13.0369

     occupation numbers 
     1.0000   1.0000   1.0000   1.0000   1.0000   1.0000   1.0000   1.0000
     1.0000   1.0000   1.0000   1.0000   1.0000   1.0000   1.0000   1.0000
     1.0000   1.0000   1.0000   1.0000   1.0000   1.0000   1.0000   1.0000
     1.0000   1.0000   1.0000   1.0000   1.0046   1.0060   0.0000   0.0000
     0.0000   0.0000   0.0000   0.0000   0.0000   0.0000   0.0000   0.0000

          k =-0.2500 0.1443-0.2532 (  4903 PWs)   bands (ev):

   -69.7593 -69.1603 -69.1597 -36.5108 -36.5068 -36.5065 -35.9134 -35.9127
   -35.9118 -35.9097 -35.9088 -35.9071 -14.7307 -14.7264 -14.7260 -14.7247
   -14.7162 -14.7140 -14.6965 -14.6959 -14.6898 -14.6866  -3.4916  -3.1960
     3.4142   4.0122   5.2104   6.0299   6.1198   6.4166   7.9839   9.2860
    10.3198  11.1273  11.5619  11.7169  11.8990  12.2560  12.5891  12.9775

     occupation numbers 
     1.0000   1.0000   1.0000   1.0000   1.0000   1.0000   1.0000   1.0000
     1.0000   1.0000   1.0000   1.0000   1.0000   1.0000   1.0000   1.0000
     1.0000   1.0000   1.0000   1.0000   1.0000   1.0000   1.0000   1.0000
     1.0000   1.0000   1.0000   1.0000   1.0000   1.0000   0.0000   0.0000
     0.0000   0.0000   0.0000   0.0000   0.0000   0.0000   0.0000   0.0000

          k =-0.3750 0.2165 0.0000 (  4874 PWs)   bands (ev):

   -69.7592 -69.1602 -69.1597 -36.5099 -36.5067 -36.5056 -35.9137 -35.9119
   -35.9108 -35.9091 -35.9072 -35.9067 -14.7321 -14.7275 -14.7260 -14.7219
   -14.7150 -14.7133 -14.6951 -14.6942 -14.6912 -14.6852  -3.3843  -2.9167
     3.1636   3.7658   4.0426   5.3535   5.9334   6.7800   7.8662   9.0519
     9.7490  10.2975  11.5513  12.1791  13.2798  13.3756  13.8085  14.1233

     occupation numbers 
     1.0000   1.0000   1.0000   1.0000   1.0000   1.0000   1.0000   1.0000
     1.0000   1.0000   1.0000   1.0000   1.0000   1.0000   1.0000   1.0000
     1.0000   1.0000   1.0000   1.0000   1.0000   1.0000   1.0000   1.0000
     1.0000   1.0000   1.0000   1.0000   1.0000   1.0059   0.0000   0.0000
     0.0000   0.0000   0.0000   0.0000   0.0000   0.0000   0.0000   0.0000

          k =-0.3750 0.2165-0.1266 (  4894 PWs)   bands (ev):

   -69.7593 -69.1602 -69.1598 -36.5108 -36.5068 -36.5063 -35.9140 -35.9133
   -35.9117 -35.9090 -35.9082 -35.9067 -14.7322 -14.7267 -14.7261 -14.7227
   -14.7153 -14.7129 -14.6947 -14.6942 -14.6917 -14.6852  -3.3481  -2.9573
     2.9402   3.7043   4.4385   5.4489   6.1844   6.5590   7.5721   8.6804
    10.4845  10.7380  10.7545  12.0152  13.1788  13.1989  13.7098  14.3453

     occupation numbers 
     1.0000   1.0000   1.0000   1.0000   1.0000   1.0000   1.0000   1.0000
     1.0000   1.0000   1.0000   1.0000   1.0000   1.0000   1.0000   1.0000
     1.0000   1.0000   1.0000   1.0000   1.0000   1.0000   1.0000   1.0000
     1.0000   1.0000   1.0000   1.0000   1.0000   1.0000   0.0094   0.0000
     0.0000   0.0000   0.0000   0.0000   0.0000   0.0000   0.0000   0.0000

          k =-0.3750 0.2165-0.2532 (  4893 PWs)   bands (ev):

   -69.7593 -69.1602 -69.1598 -36.5106 -36.5068 -36.5063 -35.9139 -35.9131
   -35.9116 -35.9091 -35.9078 -35.9070 -14.7318 -14.7269 -14.7258 -14.7235
   -14.7156 -14.7123 -14.6947 -14.6940 -14.6915 -14.6856  -3.2565  -3.0574
     2.8703   3.3723   5.2552   5.6910   6.1624   6.1696   7.4309   8.8885
     9.8037  10.0516  11.6862  12.3288  12.6550  13.2880  13.6297  14.0731

     occupation numbers 
     1.0000   1.0000   1.0000   1.0000   1.0000   1.0000   1.0000   1.0000
     1.0000   1.0000   1.0000   1.0000   1.0000   1.0000   1.0000   1.0000
     1.0000   1.0000   1.0000   1.0000   1.0000   1.0000   1.0000   1.0000
     1.0000   1.0000   1.0000   1.0000   1.0000   1.0000   0.1067   0.0000
     0.0000   0.0000   0.0000   0.0000   0.0000   0.0000   0.0000   0.0000

          k = 0.5000-0.2887-0.0000 (  4874 PWs)   bands (ev):

   -69.7592 -69.1601 -69.1598 -36.5098 -36.5066 -36.5059 -35.9134 -35.9125
   -35.9115 -35.9092 -35.9067 -35.9065 -14.7328 -14.7275 -14.7261 -14.7213
   -14.7148 -14.7127 -14.6940 -14.6935 -14.6924 -14.6846  -3.2174  -2.9345
     2.8481   3.7385   4.2675   5.2348   5.3116   6.6911   7.6891   8.9787
     9.6127  10.1912  12.2426  12.2790  13.1306  13.6057  14.8986  15.1280

     occupation numbers 
     1.0000   1.0000   1.0000   1.0000   1.0000   1.0000   1.0000   1.0000
     1.0000   1.0000   1.0000   1.0000   1.0000   1.0000   1.0000   1.0000
     1.0000   1.0000   1.0000   1.0000   1.0000   1.0000   1.0000   1.0000
     1.0000   1.0000   1.0000   1.0000   1.0000   1.0009   0.0006   0.0000
     0.0000   0.0000   0.0000   0.0000   0.0000   0.0000   0.0000   0.0000

          k = 0.5000-0.2887-0.1266 (  4870 PWs)   bands (ev):

   -69.7592 -69.1601 -69.1598 -36.5102 -36.5065 -36.5052 -35.9136 -35.9115
   -35.9113 -35.9087 -35.9072 -35.9066 -14.7325 -14.7270 -14.7266 -14.7217
   -14.7151 -14.7122 -14.6938 -14.6934 -14.6924 -14.6848  -3.1913  -2.9579
     2.7359   3.4516   4.6043   5.3240   5.7993   6.4816   7.5859   8.5175
    10.1250  10.5843  11.0972  11.2854  14.2644  14.4988  14.8454  15.1733

     occupation numbers 
     1.0000   1.0000   1.0000   1.0000   1.0000   1.0000   1.0000   1.0000
     1.0000   1.0000   1.0000   1.0000   1.0000   1.0000   1.0000   1.0000
     1.0000   1.0000   1.0000   1.0000   1.0000   1.0000   1.0000   1.0000
     1.0000   1.0000   1.0000   1.0000   1.0000   1.0000   0.0071   0.0000
     0.0000   0.0000   0.0000   0.0000   0.0000   0.0000   0.0000   0.0000

          k = 0.5000-0.2887-0.2532 (  4880 PWs)   bands (ev):

   -69.7592 -69.1601 -69.1599 -36.5111 -36.5063 -36.5056 -35.9136 -35.9122
   -35.9119 -35.9085 -35.9077 -35.9070 -14.7320 -14.7275 -14.7259 -14.7226
   -14.7155 -14.7116 -14.6933 -14.6931 -14.6927 -14.6852  -3.1285  -3.0163
     2.6365   3.0878   5.3506   5.5639   6.0764   6.1723   7.5491   8.5612
     9.2226   9.8984  11.5059  12.1425  13.0385  13.6068  15.2465  15.3949

     occupation numbers 
     1.0000   1.0000   1.0000   1.0000   1.0000   1.0000   1.0000   1.0000
     1.0000   1.0000   1.0000   1.0000   1.0000   1.0000   1.0000   1.0000
     1.0000   1.0000   1.0000   1.0000   1.0000   1.0000   1.0000   1.0000
     1.0000   1.0000   1.0000   1.0000   1.0000   1.0000   0.0149   0.0000
     0.0000   0.0000   0.0000   0.0000   0.0000   0.0000   0.0000   0.0000

          k =-0.2500 0.0000 0.0000 (  4909 PWs)   bands (ev):

   -69.7593 -69.1604 -69.1597 -36.5104 -36.5075 -36.5072 -35.9141 -35.9138
   -35.9115 -35.9102 -35.9084 -35.9073 -14.7295 -14.7283 -14.7256 -14.7246
   -14.7160 -14.7151 -14.6969 -14.6965 -14.6892 -14.6869  -3.7371  -2.9907
     3.0226   4.6992   4.7017   5.9390   6.7489   7.0103   9.2261   9.5357
     9.5394  10.3830  10.4482  11.5427  11.8710  12.0925  12.5409  13.2513

     occupation numbers 
     1.0000   1.0000   1.0000   1.0000   1.0000   1.0000   1.0000   1.0000
     1.0000   1.0000   1.0000   1.0000   1.0000   1.0000   1.0000   1.0000
     1.0000   1.0000   1.0000   1.0000   1.0000   1.0000   1.0000   1.0000
     1.0000   1.0000   1.0000   1.0000   1.0032   1.0813   0.0000   0.0000
     0.0000   0.0000   0.0000   0.0000   0.0000   0.0000   0.0000   0.0000

          k =-0.2500 0.0000-0.1266 (  4913 PWs)   bands (ev):

   -69.7593 -69.1604 -69.1597 -36.5108 -36.5074 -36.5071 -35.9140 -35.9136
   -35.9116 -35.9101 -35.9089 -35.9073 -14.7298 -14.7277 -14.7260 -14.7244
   -14.7162 -14.7148 -14.6970 -14.6964 -14.6892 -14.6870  -3.6836  -3.0682
     3.1850   4.5594   4.8862   5.8138   6.5859   6.9609   8.8844   9.5857
     9.7898  10.4230  10.7046  11.3062  11.8382  12.2185  12.9566  13.5681

     occupation numbers 
     1.0000   1.0000   1.0000   1.0000   1.0000   1.0000   1.0000   1.0000
     1.0000   1.0000   1.0000   1.0000   1.0000   1.0000   1.0000   1.0000
     1.0000   1.0000   1.0000   1.0000   1.0000   1.0000   1.0000   1.0000
     1.0000   1.0000   1.0000   1.0000   1.0001   1.0637   0.0000   0.0000
     0.0000   0.0000   0.0000   0.0000   0.0000   0.0000   0.0000   0.0000

          k =-0.2500 0.0000-0.2532 (  4915 PWs)   bands (ev):

   -69.7593 -69.1604 -69.1597 -36.5111 -36.5072 -36.5069 -35.9140 -35.9135
   -35.9119 -35.9093 -35.9091 -35.9073 -14.7299 -14.7276 -14.7257 -14.7247
   -14.7164 -14.7145 -14.6969 -14.6964 -14.6892 -14.6871  -3.5514  -3.2382
     3.5934   4.1428   5.4168   5.8055   6.2665   6.3496   8.9231   9.7789
    10.0105  10.3019  10.8033  11.5972  11.9779  12.3852  12.5401  13.5147

     occupation numbers 
     1.0000   1.0000   1.0000   1.0000   1.0000   1.0000   1.0000   1.0000
     1.0000   1.0000   1.0000   1.0000   1.0000   1.0000   1.0000   1.0000
     1.0000   1.0000   1.0000   1.0000   1.0000   1.0000   1.0000   1.0000
     1.0000   1.0000   1.0000   1.0000   1.0000   1.0000   0.0000   0.0000
     0.0000   0.0000   0.0000   0.0000   0.0000   0.0000   0.0000   0.0000

          k =-0.3750 0.0722 0.0000 (  4894 PWs)   bands (ev):

   -69.7593 -69.1603 -69.1597 -36.5103 -36.5071 -36.5063 -35.9140 -35.9130
   -35.9116 -35.9094 -35.9076 -35.9072 -14.7310 -14.7281 -14.7255 -14.7228
   -14.7150 -14.7139 -14.6957 -14.6951 -14.6902 -14.6859  -3.4809  -2.9223
     3.4785   3.6743   4.1520   5.2426   6.3216   6.3403   8.6088   9.4923
     9.8940  10.5600  11.2277  11.5541  12.5729  12.8279  13.7727  14.1425

     occupation numbers 
     1.0000   1.0000   1.0000   1.0000   1.0000   1.0000   1.0000   1.0000
     1.0000   1.0000   1.0000   1.0000   1.0000   1.0000   1.0000   1.0000
     1.0000   1.0000   1.0000   1.0000   1.0000   1.0000   1.0000   1.0000
     1.0000   1.0000   1.0000   1.0000   1.0000   1.0000   0.0000   0.0000
     0.0000   0.0000   0.0000   0.0000   0.0000   0.0000   0.0000   0.0000

          k =-0.3750 0.0722-0.1266 (  4886 PWs)   bands (ev):

   -69.7593 -69.1602 -69.1597 -36.5103 -36.5071 -36.5057 -35.9138 -35.9128
   -35.9111 -35.9094 -35.9074 -35.9066 -14.7312 -14.7275 -14.7254 -14.7235
   -14.7151 -14.7136 -14.6954 -14.6951 -14.6904 -14.6860  -3.4385  -2.9748
     3.2155   3.8289   4.4842   5.1485   6.0775   6.6169   8.3319   9.4974
     9.8965  10.8952  11.0416  11.5665  12.4179  12.9138  13.4077  13.7884

     occupation numbers 
     1.0000   1.0000   1.0000   1.0000   1.0000   1.0000   1.0000   1.0000
     1.0000   1.0000   1.0000   1.0000   1.0000   1.0000   1.0000   1.0000
     1.0000   1.0000   1.0000   1.0000   1.0000   1.0000   1.0000   1.0000
     1.0000   1.0000   1.0000   1.0000   1.0000   1.0001   0.0000   0.0000
     0.0000   0.0000   0.0000   0.0000   0.0000   0.0000   0.0000   0.0000

          k =-0.3750 0.0722-0.2532 (  4890 PWs)   bands (ev):

   -69.7593 -69.1602 -69.1598 -36.5106 -36.5070 -36.5057 -35.9138 -35.9125
   -35.9115 -35.9094 -35.9077 -35.9069 -14.7309 -14.7272 -14.7254 -14.7243
   -14.7153 -14.7132 -14.6952 -14.6950 -14.6903 -14.6863  -3.3330  -3.0970
     3.1942   3.5853   5.0669   5.4644   5.6916   6.4212   8.2783   9.7662
     9.9771  10.6826  10.9925  11.2599  11.7170  12.9935  13.6987  14.0151

     occupation numbers 
     1.0000   1.0000   1.0000   1.0000   1.0000   1.0000   1.0000   1.0000
     1.0000   1.0000   1.0000   1.0000   1.0000   1.0000   1.0000   1.0000
     1.0000   1.0000   1.0000   1.0000   1.0000   1.0000   1.0000   1.0000
     1.0000   1.0000   1.0000   1.0000   1.0000   1.0000   0.0000   0.0000
     0.0000   0.0000   0.0000   0.0000   0.0000   0.0000   0.0000   0.0000

          k =-0.5000 0.1443 0.0000 (  4885 PWs)   bands (ev):

   -69.7593 -69.1601 -69.1598 -36.5104 -36.5069 -36.5058 -35.9138 -35.9124
   -35.9120 -35.9091 -35.9073 -35.9067 -14.7321 -14.7277 -14.7259 -14.7216
   -14.7145 -14.7129 -14.6951 -14.6931 -14.6914 -14.6852  -3.2304  -2.9229
     3.0123   3.8414   4.1846   4.7655   5.5198   6.0938   8.2367   9.1619
     9.8615  10.9507  12.0771  12.5246  12.8772  13.3568  13.8690  14.5665

     occupation numbers 
     1.0000   1.0000   1.0000   1.0000   1.0000   1.0000   1.0000   1.0000
     1.0000   1.0000   1.0000   1.0000   1.0000   1.0000   1.0000   1.0000
     1.0000   1.0000   1.0000   1.0000   1.0000   1.0000   1.0000   1.0000
     1.0000   1.0000   1.0000   1.0000   1.0000   1.0000   0.0000   0.0000
     0.0000   0.0000   0.0000   0.0000   0.0000   0.0000   0.0000   0.0000

          k =-0.5000 0.1443-0.1266 (  4883 PWs)   bands (ev):

   -69.7592 -69.1601 -69.1599 -36.5105 -36.5067 -36.5058 -35.9134 -35.9125
   -35.9119 -35.9088 -35.9074 -35.9069 -14.7320 -14.7272 -14.7262 -14.7221
   -14.7147 -14.7125 -14.6948 -14.6929 -14.6917 -14.6854  -3.2041  -2.9471
     2.8787   3.5574   4.4893   4.9651   5.7718   6.0253   8.1789   9.2999
     9.6529  11.0048  11.0444  12.3708  12.6926  13.5605  14.3137  14.5739

     occupation numbers 
     1.0000   1.0000   1.0000   1.0000   1.0000   1.0000   1.0000   1.0000
     1.0000   1.0000   1.0000   1.0000   1.0000   1.0000   1.0000   1.0000
     1.0000   1.0000   1.0000   1.0000   1.0000   1.0000   1.0000   1.0000
     1.0000   1.0000   1.0000   1.0000   1.0000   1.0000   0.0000   0.0000
     0.0000   0.0000   0.0000   0.0000   0.0000   0.0000   0.0000   0.0000

          k =-0.5000 0.1443-0.2532 (  4893 PWs)   bands (ev):

   -69.7593 -69.1601 -69.1599 -36.5112 -36.5068 -36.5060 -35.9136 -35.9130
   -35.9118 -35.9091 -35.9080 -35.9074 -14.7315 -14.7271 -14.7262 -14.7231
   -14.7150 -14.7120 -14.6943 -14.6930 -14.6916 -14.6858  -3.1388  -3.0098
     2.7875   3.2195   4.6944   5.3586   5.7980   6.4677   7.9530   9.2721
     9.6873  10.1351  10.6537  11.8360  13.2361  13.6006  13.9069  14.8099

     occupation numbers 
     1.0000   1.0000   1.0000   1.0000   1.0000   1.0000   1.0000   1.0000
     1.0000   1.0000   1.0000   1.0000   1.0000   1.0000   1.0000   1.0000
     1.0000   1.0000   1.0000   1.0000   1.0000   1.0000   1.0000   1.0000
     1.0000   1.0000   1.0000   1.0000   1.0000   1.0000   0.0000   0.0000
     0.0000   0.0000   0.0000   0.0000   0.0000   0.0000   0.0000   0.0000

          k =-0.5000 0.0000 0.0000 (  4869 PWs)   bands (ev):

   -69.7592 -69.1601 -69.1598 -36.5094 -36.5068 -36.5054 -35.9131 -35.9126
   -35.9108 -35.9092 -35.9064 -35.9062 -14.7314 -14.7280 -14.7256 -14.7220
   -14.7140 -14.7132 -14.6957 -14.6932 -14.6903 -14.6860  -3.2423  -2.9123
     3.3189   3.7530   4.0942   4.5720   5.5555   5.7158   8.1203  10.4831
    10.5375  11.0061  11.3656  12.2203  12.9917  13.1164  13.6622  14.3510

     occupation numbers 
     1.0000   1.0000   1.0000   1.0000   1.0000   1.0000   1.0000   1.0000
     1.0000   1.0000   1.0000   1.0000   1.0000   1.0000   1.0000   1.0000
     1.0000   1.0000   1.0000   1.0000   1.0000   1.0000   1.0000   1.0000
     1.0000   1.0000   1.0000   1.0000   1.0000   1.0000   0.0000   0.0000
     0.0000   0.0000   0.0000   0.0000   0.0000   0.0000   0.0000   0.0000

          k =-0.5000 0.0000-0.1266 (  4887 PWs)   bands (ev):

   -69.7593 -69.1601 -69.1598 -36.5107 -36.5070 -36.5055 -35.9135 -35.9129
   -35.9115 -35.9092 -35.9074 -35.9071 -14.7310 -14.7279 -14.7258 -14.7225
   -14.7141 -14.7130 -14.6954 -14.6931 -14.6903 -14.6863  -3.2136  -2.9403
     3.2748   3.4038   4.3198   4.7832   5.3153   6.1724   8.5414   9.5708
    10.5866  10.8965  11.0675  12.1328  12.3301  13.2594  13.5571  14.3134

     occupation numbers 
     1.0000   1.0000   1.0000   1.0000   1.0000   1.0000   1.0000   1.0000
     1.0000   1.0000   1.0000   1.0000   1.0000   1.0000   1.0000   1.0000
     1.0000   1.0000   1.0000   1.0000   1.0000   1.0000   1.0000   1.0000
     1.0000   1.0000   1.0000   1.0000   1.0000   1.0000   0.0000   0.0000
     0.0000   0.0000   0.0000   0.0000   0.0000   0.0000   0.0000   0.0000

          k =-0.5000 0.0000-0.2532 (  4885 PWs)   bands (ev):

   -69.7593 -69.1601 -69.1598 -36.5106 -36.5069 -36.5057 -35.9135 -35.9129
   -35.9115 -35.9091 -35.9074 -35.9069 -14.7304 -14.7277 -14.7260 -14.7234
   -14.7142 -14.7127 -14.6950 -14.6931 -14.6903 -14.6867  -3.1450  -3.0077
     3.1458   3.2215   4.2612   4.8724   5.8050   6.5595   8.7401   9.3241
     9.9888  10.6178  11.2155  11.3675  11.7817  12.2608  14.8496  15.0169

     occupation numbers 
     1.0000   1.0000   1.0000   1.0000   1.0000   1.0000   1.0000   1.0000
     1.0000   1.0000   1.0000   1.0000   1.0000   1.0000   1.0000   1.0000
     1.0000   1.0000   1.0000   1.0000   1.0000   1.0000   1.0000   1.0000
     1.0000   1.0000   1.0000   1.0000   1.0000   1.0000   0.0000   0.0000
     0.0000   0.0000   0.0000   0.0000   0.0000   0.0000   0.0000   0.0000

          k =-0.6250 0.0722 0.0000 (  4884 PWs)   bands (ev):

   -69.7593 -69.1600 -69.1599 -36.5098 -36.5066 -36.5063 -35.9131 -35.9126
   -35.9123 -35.9096 -35.9065 -35.9065 -14.7316 -14.7273 -14.7262 -14.7216
   -14.7136 -14.7130 -14.6959 -14.6915 -14.6910 -14.6862  -3.0863  -2.9600
     3.1429   3.9205   4.0080   4.6494   5.1938   5.2707   7.8267  10.4218
    11.2389  11.5749  12.3978  12.5095  12.7508  12.9296  13.2937  14.1005

     occupation numbers 
     1.0000   1.0000   1.0000   1.0000   1.0000   1.0000   1.0000   1.0000
     1.0000   1.0000   1.0000   1.0000   1.0000   1.0000   1.0000   1.0000
     1.0000   1.0000   1.0000   1.0000   1.0000   1.0000   1.0000   1.0000
     1.0000   1.0000   1.0000   1.0000   1.0000   1.0000   0.0000   0.0000
     0.0000   0.0000   0.0000   0.0000   0.0000   0.0000   0.0000   0.0000

          k =-0.6250 0.0722-0.1266 (  4902 PWs)   bands (ev):

   -69.7593 -69.1601 -69.1600 -36.5109 -36.5071 -36.5066 -35.9140 -35.9127
   -35.9125 -35.9099 -35.9076 -35.9073 -14.7311 -14.7274 -14.7265 -14.7221
   -14.7137 -14.7128 -14.6956 -14.6914 -14.6910 -14.6866  -3.0724  -2.9680
     3.1217   3.6214   3.7895   4.9948   5.2267   5.7195   8.2751   9.9864
    10.5946  10.7467  11.9999  12.3682  12.7440  13.1009  13.8186  14.1019

     occupation numbers 
     1.0000   1.0000   1.0000   1.0000   1.0000   1.0000   1.0000   1.0000
     1.0000   1.0000   1.0000   1.0000   1.0000   1.0000   1.0000   1.0000
     1.0000   1.0000   1.0000   1.0000   1.0000   1.0000   1.0000   1.0000
     1.0000   1.0000   1.0000   1.0000   1.0000   1.0000   0.0000   0.0000
     0.0000   0.0000   0.0000   0.0000   0.0000   0.0000   0.0000   0.0000

          k =-0.6250 0.0722-0.2532 (  4892 PWs)   bands (ev):

   -69.7593 -69.1600 -69.1599 -36.5108 -36.5066 -36.5065 -35.9133 -35.9126
   -35.9125 -35.9096 -35.9076 -35.9072 -14.7303 -14.7272 -14.7270 -14.7230
   -14.7137 -14.7124 -14.6951 -14.6912 -14.6910 -14.6871  -3.0410  -2.9900
     3.0502   3.2908   3.8028   4.5793   6.1449   6.4635   8.7658   9.2509
     9.5289  10.5705  11.2524  11.6980  13.0022  13.1118  13.5390  13.7024

     occupation numbers 
     1.0000   1.0000   1.0000   1.0000   1.0000   1.0000   1.0000   1.0000
     1.0000   1.0000   1.0000   1.0000   1.0000   1.0000   1.0000   1.0000
     1.0000   1.0000   1.0000   1.0000   1.0000   1.0000   1.0000   1.0000
     1.0000   1.0000   1.0000   1.0000   1.0000   1.0000   0.0000   0.0000
     0.0000   0.0000   0.0000   0.0000   0.0000   0.0000   0.0000   0.0000

          k = 0.1250 0.0722 0.1266 (  4919 PWs)   bands (ev):

   -69.7593 -69.1604 -69.1597 -36.5109 -36.5076 -36.5070 -35.9143 -35.9135
   -35.9115 -35.9099 -35.9097 -35.9072 -14.7284 -14.7282 -14.7267 -14.7249
   -14.7171 -14.7156 -14.6979 -14.6973 -14.6884 -14.6877  -3.8300  -3.1420
     3.0129   5.3007   5.7258   6.2100   6.9179   7.0985   8.8412   9.1442
    10.0043  10.3859  10.5623  11.0134  11.6687  11.8456  12.7851  12.8914

     occupation numbers 
     1.0000   1.0000   1.0000   1.0000   1.0000   1.0000   1.0000   1.0000
     1.0000   1.0000   1.0000   1.0000   1.0000   1.0000   1.0000   1.0000
     1.0000   1.0000   1.0000   1.0000   1.0000   1.0000   1.0000   1.0000
     1.0000   1.0000   1.0000   1.0000   1.0437   1.0457   0.0000   0.0000
     0.0000   0.0000   0.0000   0.0000   0.0000   0.0000   0.0000   0.0000

          k = 0.1250 0.0722 0.2532 (  4916 PWs)   bands (ev):

   -69.7593 -69.1604 -69.1597 -36.5104 -36.5076 -36.5070 -35.9140 -35.9135
   -35.9108 -35.9106 -35.9096 -35.9065 -14.7290 -14.7285 -14.7258 -14.7247
   -14.7172 -14.7152 -14.6979 -14.6974 -14.6884 -14.6877  -3.6861  -3.3354
     3.6681   4.5695   5.9634   6.3347   6.3975   6.8278   8.9595   9.3763
     9.7968  10.4197  10.5711  11.2808  11.5350  12.2851  12.5812  13.3639

     occupation numbers 
     1.0000   1.0000   1.0000   1.0000   1.0000   1.0000   1.0000   1.0000
     1.0000   1.0000   1.0000   1.0000   1.0000   1.0000   1.0000   1.0000
     1.0000   1.0000   1.0000   1.0000   1.0000   1.0000   1.0000   1.0000
     1.0000   1.0000   1.0000   1.0000   1.0000   1.0134   0.0000   0.0000
     0.0000   0.0000   0.0000   0.0000   0.0000   0.0000   0.0000   0.0000

          k = 0.2500 0.1443 0.1266 (  4907 PWs)   bands (ev):

   -69.7593 -69.1603 -69.1597 -36.5107 -36.5072 -36.5069 -35.9140 -35.9133
   -35.9116 -35.9098 -35.9086 -35.9074 -14.7297 -14.7279 -14.7269 -14.7233
   -14.7160 -14.7143 -14.6969 -14.6957 -14.6894 -14.6867  -3.6160  -3.0403
     3.2832   4.1116   4.7059   5.7592   6.7388   6.8552   8.6615   8.9363
     9.8291  10.6365  10.7345  11.6335  12.3016  12.3287  13.0303  13.5588

     occupation numbers 
     1.0000   1.0000   1.0000   1.0000   1.0000   1.0000   1.0000   1.0000
     1.0000   1.0000   1.0000   1.0000   1.0000   1.0000   1.0000   1.0000
     1.0000   1.0000   1.0000   1.0000   1.0000   1.0000   1.0000   1.0000
     1.0000   1.0000   1.0000   1.0000   1.0026   1.0202   0.0000   0.0000
     0.0000   0.0000   0.0000   0.0000   0.0000   0.0000   0.0000   0.0000

          k = 0.2500 0.1443 0.2532 (  4903 PWs)   bands (ev):

   -69.7593 -69.1603 -69.1597 -36.5108 -36.5068 -36.5065 -35.9136 -35.9126
   -35.9114 -35.9095 -35.9088 -35.9074 -14.7300 -14.7274 -14.7267 -14.7237
   -14.7162 -14.7139 -14.6968 -14.6956 -14.6895 -14.6868  -3.4898  -3.1984
     3.5485   3.8468   5.1863   5.9787   6.1059   6.4905   8.4457   9.0217
    10.0185  11.0576  11.0923  11.6527  12.0806  12.5765  12.8720  13.3372

     occupation numbers 
     1.0000   1.0000   1.0000   1.0000   1.0000   1.0000   1.0000   1.0000
     1.0000   1.0000   1.0000   1.0000   1.0000   1.0000   1.0000   1.0000
     1.0000   1.0000   1.0000   1.0000   1.0000   1.0000   1.0000   1.0000
     1.0000   1.0000   1.0000   1.0000   1.0000   1.0000   0.0000   0.0000
     0.0000   0.0000   0.0000   0.0000   0.0000   0.0000   0.0000   0.0000

          k = 0.3750 0.2165 0.1266 (  4894 PWs)   bands (ev):

   -69.7593 -69.1602 -69.1598 -36.5108 -36.5068 -36.5063 -35.9140 -35.9124
   -35.9123 -35.9089 -35.9079 -35.9073 -14.7316 -14.7274 -14.7268 -14.7220
   -14.7153 -14.7129 -14.6954 -14.6940 -14.6909 -14.6855  -3.3446  -2.9622
     3.0642   3.6116   4.2843   5.4348   6.2684   6.5938   7.9505   8.6280
     9.7592  10.5966  10.9024  11.9471  13.4393  13.5827  14.1457  14.4872

     occupation numbers 
     1.0000   1.0000   1.0000   1.0000   1.0000   1.0000   1.0000   1.0000
     1.0000   1.0000   1.0000   1.0000   1.0000   1.0000   1.0000   1.0000
     1.0000   1.0000   1.0000   1.0000   1.0000   1.0000   1.0000   1.0000
     1.0000   1.0000   1.0000   1.0000   1.0000   1.0001   0.0000   0.0000
     0.0000   0.0000   0.0000   0.0000   0.0000   0.0000   0.0000   0.0000

          k = 0.3750 0.2165 0.2532 (  4893 PWs)   bands (ev):

   -69.7593 -69.1602 -69.1598 -36.5106 -36.5068 -36.5063 -35.9143 -35.9128
   -35.9117 -35.9088 -35.9080 -35.9071 -14.7313 -14.7274 -14.7264 -14.7228
   -14.7156 -14.7123 -14.6952 -14.6939 -14.6910 -14.6858  -3.2518  -3.0629
     2.9581   3.2874   5.1443   5.6685   6.1659   6.1953   8.1014   8.4737
     9.1845  10.5293  11.4116  12.0888  13.2296  13.5466  13.8052  14.1210

     occupation numbers 
     1.0000   1.0000   1.0000   1.0000   1.0000   1.0000   1.0000   1.0000
     1.0000   1.0000   1.0000   1.0000   1.0000   1.0000   1.0000   1.0000
     1.0000   1.0000   1.0000   1.0000   1.0000   1.0000   1.0000   1.0000
     1.0000   1.0000   1.0000   1.0000   1.0000   1.0000   0.0000   0.0000
     0.0000   0.0000   0.0000   0.0000   0.0000   0.0000   0.0000   0.0000

          k = 0.3750 0.0722 0.1266 (  4886 PWs)   bands (ev):

   -69.7593 -69.1602 -69.1597 -36.5103 -36.5071 -36.5057 -35.9134 -35.9124
   -35.9113 -35.9095 -35.9078 -35.9068 -14.7305 -14.7282 -14.7260 -14.7229
   -14.7152 -14.7136 -14.6958 -14.6948 -14.6900 -14.6862  -3.4370  -2.9771
     3.3620   3.6681   4.4070   5.1859   6.1001   6.6347   8.8988   9.2220
     9.6164  10.2105  11.3191  12.0892  12.2168  12.6323  14.1009  14.2174

     occupation numbers 
     1.0000   1.0000   1.0000   1.0000   1.0000   1.0000   1.0000   1.0000
     1.0000   1.0000   1.0000   1.0000   1.0000   1.0000   1.0000   1.0000
     1.0000   1.0000   1.0000   1.0000   1.0000   1.0000   1.0000   1.0000
     1.0000   1.0000   1.0000   1.0000   1.0000   1.0002   0.0000   0.0000
     0.0000   0.0000   0.0000   0.0000   0.0000   0.0000   0.0000   0.0000

          k = 0.3750 0.0722 0.2532 (  4890 PWs)   bands (ev):

   -69.7593 -69.1602 -69.1597 -36.5106 -36.5070 -36.5057 -35.9136 -35.9125
   -35.9115 -35.9095 -35.9078 -35.9069 -14.7304 -14.7278 -14.7259 -14.7236
   -14.7153 -14.7132 -14.6956 -14.6948 -14.6900 -14.6865  -3.3310  -3.0995
     3.3158   3.4566   5.0237   5.4097   5.7737   6.4188   8.7934   9.1795
     9.8579  10.4151  11.0069  11.6552  12.1262  12.6581  13.2845  14.2567

     occupation numbers 
     1.0000   1.0000   1.0000   1.0000   1.0000   1.0000   1.0000   1.0000
     1.0000   1.0000   1.0000   1.0000   1.0000   1.0000   1.0000   1.0000
     1.0000   1.0000   1.0000   1.0000   1.0000   1.0000   1.0000   1.0000
     1.0000   1.0000   1.0000   1.0000   1.0000   1.0000   0.0000   0.0000
     0.0000   0.0000   0.0000   0.0000   0.0000   0.0000   0.0000   0.0000

          k = 0.5000 0.1443 0.1266 (  4883 PWs)   bands (ev):

   -69.7592 -69.1601 -69.1598 -36.5105 -36.5067 -36.5058 -35.9133 -35.9126
   -35.9117 -35.9090 -35.9073 -35.9070 -14.7317 -14.7276 -14.7263 -14.7219
   -14.7147 -14.7125 -14.6950 -14.6932 -14.6911 -14.6855  -3.2016  -2.9503
     2.9311   3.5223   4.3700   5.0284   5.7792   6.0602   8.3536   9.2101
     9.6961  10.2846  11.5759  12.1851  12.9694  13.7399  14.1964  14.8337

     occupation numbers 
     1.0000   1.0000   1.0000   1.0000   1.0000   1.0000   1.0000   1.0000
     1.0000   1.0000   1.0000   1.0000   1.0000   1.0000   1.0000   1.0000
     1.0000   1.0000   1.0000   1.0000   1.0000   1.0000   1.0000   1.0000
     1.0000   1.0000   1.0000   1.0000   1.0000   1.0000   0.0000   0.0000
     0.0000   0.0000   0.0000   0.0000   0.0000   0.0000   0.0000   0.0000

          k = 0.5000 0.1443 0.2532 (  4893 PWs)   bands (ev):

   -69.7593 -69.1601 -69.1599 -36.5112 -36.5068 -36.5060 -35.9136 -35.9125
   -35.9121 -35.9095 -35.9078 -35.9074 -14.7312 -14.7275 -14.7262 -14.7229
   -14.7150 -14.7120 -14.6945 -14.6931 -14.6912 -14.6859  -3.1354  -3.0137
     2.8285   3.1790   4.6708   5.3561   5.7903   6.4689   8.3344   8.8127
     9.5934  10.3672  10.4880  12.0710  13.2474  13.4826  13.8376  14.7776

     occupation numbers 
     1.0000   1.0000   1.0000   1.0000   1.0000   1.0000   1.0000   1.0000
     1.0000   1.0000   1.0000   1.0000   1.0000   1.0000   1.0000   1.0000
     1.0000   1.0000   1.0000   1.0000   1.0000   1.0000   1.0000   1.0000
     1.0000   1.0000   1.0000   1.0000   1.0000   1.0000   0.0000   0.0000
     0.0000   0.0000   0.0000   0.0000   0.0000   0.0000   0.0000   0.0000

     the Fermi energy is     7.3124 ev

!    total energy              =    -690.56431555 Ry
     estimated scf accuracy    <          1.8E-10 Ry
     smearing contrib. (-TS)   =       0.00065284 Ry
     internal energy E=F+TS    =    -690.56496839 Ry

     The total energy is F=E-TS. E is the sum of the following terms:
     one-electron contribution =    -449.17339901 Ry
     hartree contribution      =     234.18364733 Ry
     xc contribution           =    -117.73406745 Ry
     ewald contribution        =    -357.84114925 Ry

     convergence has been achieved in  10 iterations

     Forces acting on atoms (cartesian axes, Ry/au):

     atom    1 type  1   force =    -0.00000000    0.00000000    0.00000000
     atom    2 type  1   force =    -0.00000000    0.00000000   -0.00042213
     atom    3 type  1   force =    -0.00000000   -0.00000000    0.00042213
     atom    4 type  2   force =     0.00000000    0.00000000   -0.00131611
     atom    5 type  2   force =    -0.00000000    0.00000000    0.00131611
     The non-local contrib.  to forces
     atom    1 type  1   force =    -0.00000000   -0.00000000   -0.00000000
     atom    2 type  1   force =     0.00000000    0.00000000    0.04552631
     atom    3 type  1   force =     0.00000000   -0.00000000   -0.04552631
     atom    4 type  2   force =     0.00000000    0.00000000    0.11161330
     atom    5 type  2   force =    -0.00000000   -0.00000000   -0.11161330
     The ionic contribution  to forces
     atom    1 type  1   force =     0.00000000    0.00000000    0.00000000
     atom    2 type  1   force =     0.00000000    0.00000000   -0.46752288
     atom    3 type  1   force =     0.00000000   -0.00000000    0.46752288
     atom    4 type  2   force =    -0.00000000    0.00000000   -1.52277249
     atom    5 type  2   force =    -0.00000000   -0.00000000    1.52277249
     The local contribution  to forces
     atom    1 type  1   force =    -0.00000000    0.00000000   -0.00000000
     atom    2 type  1   force =    -0.00000000    0.00000017    0.42172703
     atom    3 type  1   force =    -0.00000000   -0.00000017   -0.42172703
     atom    4 type  2   force =    -0.00000000    0.00000003    1.40963588
     atom    5 type  2   force =    -0.00000000   -0.00000003   -1.40963588
     The core correction contribution to forces
     atom    1 type  1   force =    -0.00000000    0.00000000   -0.00000000
     atom    2 type  1   force =    -0.00000000    0.00000000   -0.00017164
     atom    3 type  1   force =    -0.00000000   -0.00000000    0.00017164
     atom    4 type  2   force =     0.00000000    0.00000000    0.00018653
     atom    5 type  2   force =     0.00000000   -0.00000000   -0.00018653
     The Hubbard contrib.    to forces
     atom    1 type  1   force =     0.00000000    0.00000000    0.00000000
     atom    2 type  1   force =     0.00000000    0.00000000    0.00000000
     atom    3 type  1   force =     0.00000000    0.00000000    0.00000000
     atom    4 type  2   force =     0.00000000    0.00000000    0.00000000
     atom    5 type  2   force =     0.00000000    0.00000000    0.00000000
     The SCF correction term to forces
     atom    1 type  1   force =     0.00000000    0.00000000   -0.00000000
     atom    2 type  1   force =    -0.00000000    0.00000000    0.00001904
     atom    3 type  1   force =     0.00000000   -0.00000000   -0.00001904
     atom    4 type  2   force =     0.00000000    0.00000000    0.00002066
     atom    5 type  2   force =    -0.00000000   -0.00000000   -0.00002066

     Total force =     0.001955     Total SCF correction =     0.000040


     Computing stress (Cartesian axis) and pressure

          total   stress  (Ry/bohr**3)                   (kbar)     P=      -38.11
  -0.00025625  -0.00000000   0.00000000          -37.70       -0.00        0.00
  -0.00000000  -0.00025625   0.00000000           -0.00      -37.70        0.00
  -0.00000000   0.00000000  -0.00026471           -0.00        0.00      -38.94

     kinetic stress (kbar)  21757.11     -0.00     -0.00
                                0.00  21757.11      0.00
                                0.00     -0.00  21763.32

     local   stress (kbar) -11796.23      0.00     -0.00
                                0.00 -11796.23      0.00
                               -0.00      0.00 -12709.92

     nonloc. stress (kbar)   1470.34     -0.00     -0.00
                                0.00   1470.34      0.00
                               -0.00      0.00   1459.90

     hartree stress (kbar)  11805.05     -0.00      0.00
                               -0.00  11805.05     -0.00
                                0.00     -0.00  12267.12

     exc-cor stress (kbar)     37.73      0.00     -0.00
                                0.00     37.73     -0.00
                               -0.00     -0.00     36.90

     corecor stress (kbar)  -4886.03      0.00     -0.00
                                0.00  -4886.03     -0.00
                               -0.00     -0.00  -4885.89

     ewald   stress (kbar) -18425.67      0.00      0.00
                                0.00 -18425.67     -0.00
                                0.00     -0.00 -17970.36

     hubbard stress (kbar)      0.00      0.00      0.00
                                0.00      0.00      0.00
                                0.00      0.00      0.00

     DFT-D   stress (kbar)      0.00      0.00      0.00
                                0.00      0.00      0.00
                                0.00      0.00      0.00

     XDM     stress (kbar)      0.00      0.00      0.00
                                0.00      0.00      0.00
                                0.00      0.00      0.00

     dft-nl  stress (kbar)      0.00      0.00      0.00
                                0.00      0.00      0.00
                                0.00      0.00      0.00

     TS-vdW  stress (kbar)      0.00      0.00      0.00
                                0.00      0.00      0.00
                                0.00      0.00      0.00

     MDB     stress (kbar)      0.00      0.00      0.00
                                0.00      0.00      0.00
                                0.00      0.00      0.00

     3D-RISM stress (kbar)      0.00      0.00      0.00
                                0.00      0.00      0.00
                                0.00      0.00      0.00


     Writing all to output data dir ../out/m2.save/

     init_run     :      2.09s CPU      1.57s WALL (       1 calls)
     electrons    :     22.50s CPU     19.52s WALL (       1 calls)
     forces       :      1.17s CPU      0.62s WALL (       1 calls)
     stress       :      2.57s CPU      1.32s WALL (       1 calls)

     Called by init_run:
     wfcinit      :      0.38s CPU      0.20s WALL (       1 calls)
     wfcinit:atom :      0.01s CPU      0.01s WALL (       2 calls)
     wfcinit:wfcr :      0.34s CPU      0.18s WALL (       2 calls)
     potinit      :      0.62s CPU      0.37s WALL (       1 calls)
     hinit0       :      1.01s CPU      0.91s WALL (       1 calls)

     Called by electrons:
     c_bands      :     12.28s CPU      6.60s WALL (      11 calls)
     sum_band     :      3.74s CPU      4.24s WALL (      11 calls)
     v_of_rho     :      4.41s CPU      2.53s WALL (      11 calls)
     v_h          :      0.32s CPU      0.17s WALL (      11 calls)
     v_xc         :      4.77s CPU      2.74s WALL (      13 calls)
     newd         :      0.62s CPU      0.34s WALL (      11 calls)
     mix_rho      :      0.14s CPU      0.07s WALL (      11 calls)

     Called by c_bands:
     init_us_2    :      0.27s CPU      0.19s WALL (      50 calls)
     init_us_2:cp :      0.27s CPU      0.19s WALL (      50 calls)
     cegterg      :     11.61s CPU      5.86s WALL (      22 calls)

     Called by sum_band:
     sum_band:wei :      0.09s CPU      0.32s WALL (      11 calls)
     sum_band:loo :      1.97s CPU      1.05s WALL (      11 calls)
     sum_band:buf :      0.07s CPU      0.06s WALL (      22 calls)
     sum_band:ini :      0.13s CPU      0.09s WALL (      22 calls)
     sum_band:cal :      0.16s CPU      0.07s WALL (      22 calls)
     sum_band:bec :      0.00s CPU      0.00s WALL (      22 calls)
     addusdens    :      0.86s CPU      1.39s WALL (      11 calls)
     addusd:skk   :      0.01s CPU      0.00s WALL (      22 calls)
     addusd:dgemm :      0.22s CPU      0.11s WALL (      22 calls)
     addusd:qvan2 :      0.13s CPU      0.06s WALL (      22 calls)

     Called by *egterg:
     cdiaghg      :      0.24s CPU      0.12s WALL (      95 calls)
     cegterg:over :      0.68s CPU      0.34s WALL (      75 calls)
     cegterg:upda :      0.93s CPU      0.47s WALL (      75 calls)
     cegterg:last :      1.13s CPU      0.57s WALL (      44 calls)
     h_psi        :      7.56s CPU      3.80s WALL (      99 calls)
     s_psi        :      0.50s CPU      0.25s WALL (      99 calls)
     g_psi        :      0.10s CPU      0.06s WALL (      75 calls)

     Called by h_psi:
     h_psi:calbec :      0.53s CPU      0.27s WALL (      99 calls)
     vloc_psi     :      6.16s CPU      3.10s WALL (      99 calls)
     add_vuspsi   :      0.57s CPU      0.28s WALL (      99 calls)

     General routines
     calbec       :      0.75s CPU      0.37s WALL (     131 calls)
     fft          :      1.25s CPU      0.73s WALL (     167 calls)
     ffts         :      0.02s CPU      0.02s WALL (      22 calls)
     fftw         :      6.06s CPU      3.06s WALL (    5344 calls)
     interpolate  :      0.15s CPU      0.10s WALL (      11 calls)

     Parallel routines

     PWSCF        :     28.87s CPU     29.72s WALL


   This run was terminated on:  16:36:19  27May2023            

=------------------------------------------------------------------------------=
   JOB DONE.
=------------------------------------------------------------------------------=
