
     Program BANDS v.7.1 starts on  1Dec2023 at 13:13:31 

     This program is part of the open-source Quantum ESPRESSO suite
     for quantum simulation of materials; please cite
         "P. Giannozzi et al., J. Phys.:Condens. Matter 21 395502 (2009);
         "P. Giannozzi et al., J. Phys.:Condens. Matter 29 465901 (2017);
         "P. Giannozzi et al., J. Chem. Phys. 152 154105 (2020);
          URL http://www.quantum-espresso.org", 
     in publications or presentations arising from this work. More details at
     http://www.quantum-espresso.org/quote

     Parallel version (MPI & OpenMP), running on      60 processor cores
     Number of MPI processes:                30
     Threads/MPI process:                     2

     MPI processes distributed on     5 nodes
     R & G space division:  proc/nbgrp/npool/nimage =      30
     14195 MiB available memory on the printing compute node when the environment starts


     Reading xml data from directory:

     ./out/TiS.save/

     IMPORTANT: XC functional enforced from input :
     Exchange-correlation= PBE
                           (   1   4   3   4   0   0   0)
     Any further DFT definition will be discarded
     Please, verify this is what you really want


     Parallelization info
     --------------------
     sticks:   dense  smooth     PW     G-vecs:    dense   smooth      PW
     Min          12      12      4                  386      386      66
     Max          13      13      5                  395      395      72
     Sum         379     379    121                11681    11681    2079

     Using Slab Decomposition


     Check: negative core charge=   -0.000033

     negative rho (up, down):  5.209E-03 0.000E+00
     Reading collected, re-writing distributed wavefunctions
     high-symmetry point:  0.5000 0.0000 0.0000   x coordinate   0.0000
     high-symmetry point:  0.3333 0.3333 0.0000   x coordinate   0.3727
     high-symmetry point:  0.0000 0.0000 0.0000   x coordinate   0.8440
     high-symmetry point:  0.5000 0.0000 0.0000   x coordinate   1.3440
     high-symmetry point:  0.0000 0.0000 0.0000   x coordinate   1.8440
     high-symmetry point:  0.0000 0.0000 0.5000   x coordinate   2.3440
     high-symmetry point:  0.5000 0.0000 0.5000   x coordinate   2.8440
     high-symmetry point:  0.3333 0.3333 0.5000   x coordinate   3.2167

     Plottable bands (eV) written to file TiS.bands.gnu
     Bands written to file TiS.bands

 **************************************************************************

                    xk=(   0.50000,   0.00000,   0.00000  )

     point group C_2v (mm2) 
     there are  4 classes
     the character table:

       E     C2    s_v   s_v' 
A_1    1.00  1.00  1.00  1.00
A_2    1.00  1.00 -1.00 -1.00
B_1    1.00 -1.00  1.00 -1.00
B_2    1.00 -1.00 -1.00  1.00

     the symmetry operations in each class and the name of the first element:

     E        1
                                                                 
     C2       2
                                                                 
     s_v      4
                                                                 
     s_v'     3
                                                                 

     Band symmetry, C_2v (mm2)  point group:

     e(  1 -  1) =    -44.21687  eV     1   --> A_1  D_1  S_1  
     e(  2 -  2) =    -44.20704  eV     1   --> A_2  D_2  S_2  
     e(  3 -  3) =    -20.59446  eV     1   --> B_2  D_4  S_4  
     e(  4 -  4) =    -20.57031  eV     1   --> A_1  D_1  S_1  
     e(  5 -  5) =    -20.54638  eV     1   --> A_2  D_2  S_2  
     e(  6 -  6) =    -20.49968  eV     1   --> B_2  D_4  S_4  
     e(  7 -  7) =    -20.48218  eV     1   --> B_1  D_3  S_3  
     e(  8 -  8) =    -20.46624  eV     1   --> B_1  D_3  S_3  
     e(  9 -  9) =     -0.72759  eV     1   --> A_1  D_1  S_1  
     e( 10 - 10) =     -0.63522  eV     1   --> B_2  D_4  S_4  
     e( 11 - 11) =      6.55277  eV     1   --> A_1  D_1  S_1  
     e( 12 - 12) =      7.21260  eV     1   --> B_2  D_4  S_4  
     e( 13 - 13) =      7.68557  eV     1   --> A_2  D_2  S_2  
     e( 14 - 14) =      8.07059  eV     1   --> B_1  D_3  S_3  
     e( 15 - 15) =      8.08255  eV     1   --> A_1  D_1  S_1  
     e( 16 - 16) =      8.63926  eV     1   --> B_2  D_4  S_4  
     e( 17 - 17) =     12.85282  eV     1   --> B_1  D_3  S_3  
     e( 18 - 18) =     12.97289  eV     1   --> A_1  D_1  S_1  
     e( 19 - 19) =     13.37372  eV     1   --> A_2  D_2  S_2  
     e( 20 - 20) =     13.71901  eV     1   --> B_2  D_4  S_4  
     e( 21 - 21) =     14.91324  eV     1   --> A_2  D_2  S_2  
     e( 22 - 22) =     15.08438  eV     1   --> A_1  D_1  S_1  
     e( 23 - 23) =     15.16286  eV     1   --> A_2  D_2  S_2  
     e( 24 - 24) =     15.78120  eV     1   --> A_1  D_1  S_1  
     e( 25 - 25) =     16.18609  eV     1   --> B_2  D_4  S_4  
     e( 26 - 26) =     16.54924  eV     1   --> B_1  D_3  S_3  
     e( 27 - 27) =     18.05865  eV     1   --> A_2  D_2  S_2  
     e( 28 - 28) =     19.75225  eV     1   --> A_1  D_1  S_1  
     e( 29 - 29) =     20.29780  eV     1   --> B_1  D_3  S_3  
     e( 30 - 30) =     21.08254  eV     1   --> A_2  D_2  S_2  
     e( 31 - 31) =     21.19882  eV     1   --> B_2  D_4  S_4  
     e( 32 - 32) =     21.75550  eV     1   --> A_1  D_1  S_1  
     e( 33 - 33) =     22.44751  eV     1   --> B_2  D_4  S_4  
     e( 34 - 34) =     23.78902  eV     1   --> A_1  D_1  S_1  
     e( 35 - 35) =     24.24662  eV     1   --> B_1  D_3  S_3  
     e( 36 - 36) =     24.57369  eV     1   --> B_2  D_4  S_4  
     e( 37 - 37) =     27.84341  eV     1   --> A_1  D_1  S_1  
     e( 38 - 38) =     29.12927  eV     1   --> B_2  D_4  S_4  
     e( 39 - 39) =     30.26589  eV     1   --> A_1  D_1  S_1  
     e( 40 - 40) =     30.26615  eV     1   --> A_2  D_2  S_2  

 **************************************************************************

 **************************************************************************

                    xk=(   0.49917,   0.00167,   0.00000  )

     point group C_s (m)    
     there are  2 classes
     the character table:

       E     s    
A'     1.00  1.00
A''    1.00 -1.00

     the symmetry operations in each class and the name of the first element:

     E        1
                                                                 
     s        2
                                                                 

     Band symmetry, C_s (m)     point group:

     e(  1 -  1) =    -44.21690  eV     1   --> A'             
     e(  2 -  2) =    -44.20707  eV     1   --> A''            
     e(  3 -  3) =    -20.59453  eV     1   --> A'             
     e(  4 -  4) =    -20.57026  eV     1   --> A'             
     e(  5 -  5) =    -20.54633  eV     1   --> A''            
     e(  6 -  6) =    -20.49944  eV     1   --> A'             
     e(  7 -  7) =    -20.48196  eV     1   --> A''            
     e(  8 -  8) =    -20.46627  eV     1   --> A''            
     e(  9 -  9) =     -0.73051  eV     1   --> A'             
     e( 10 - 10) =     -0.63643  eV     1   --> A'             
     e( 11 - 11) =      6.55543  eV     1   --> A'             
     e( 12 - 12) =      7.21480  eV     1   --> A'             
     e( 13 - 13) =      7.68181  eV     1   --> A''            
     e( 14 - 14) =      8.07186  eV     1   --> A''            
     e( 15 - 15) =      8.08886  eV     1   --> A'             
     e( 16 - 16) =      8.64253  eV     1   --> A'             
     e( 17 - 17) =     12.85265  eV     1   --> A''            
     e( 18 - 18) =     12.96748  eV     1   --> A'             
     e( 19 - 19) =     13.37543  eV     1   --> A''            
     e( 20 - 20) =     13.71972  eV     1   --> A'             
     e( 21 - 21) =     14.90953  eV     1   --> A''            
     e( 22 - 22) =     15.08703  eV     1   --> A'             
     e( 23 - 23) =     15.16165  eV     1   --> A''            
     e( 24 - 24) =     15.77916  eV     1   --> A'             
     e( 25 - 25) =     16.18624  eV     1   --> A'             
     e( 26 - 26) =     16.54887  eV     1   --> A''            
     e( 27 - 27) =     18.06600  eV     1   --> A''            
     e( 28 - 28) =     19.74695  eV     1   --> A'             
     e( 29 - 29) =     20.29683  eV     1   --> A''            
     e( 30 - 30) =     21.08532  eV     1   --> A''            
     e( 31 - 31) =     21.19427  eV     1   --> A'             
     e( 32 - 32) =     21.74970  eV     1   --> A'             
     e( 33 - 33) =     22.44548  eV     1   --> A'             
     e( 34 - 34) =     23.78743  eV     1   --> A'             
     e( 35 - 35) =     24.25616  eV     1   --> A''            
     e( 36 - 36) =     24.57732  eV     1   --> A'             
     e( 37 - 37) =     27.84181  eV     1   --> A'             
     e( 38 - 38) =     29.14240  eV     1   --> A'             
     e( 39 - 39) =     30.26161  eV     1   --> A''            
     e( 40 - 40) =     30.27550  eV     1   --> A'             

 **************************************************************************

 **************************************************************************

                    xk=(   0.49833,   0.00333,   0.00000  )

     Band symmetry, C_s (m)     point group:

     e(  1 -  1) =    -44.21692  eV     1   --> A'             
     e(  2 -  2) =    -44.20709  eV     1   --> A''            
     e(  3 -  3) =    -20.59459  eV     1   --> A'             
     e(  4 -  4) =    -20.57021  eV     1   --> A'             
     e(  5 -  5) =    -20.54629  eV     1   --> A''            
     e(  6 -  6) =    -20.49918  eV     1   --> A'             
     e(  7 -  7) =    -20.48173  eV     1   --> A''            
     e(  8 -  8) =    -20.46630  eV     1   --> A''            
     e(  9 -  9) =     -0.73347  eV     1   --> A'             
     e( 10 - 10) =     -0.63759  eV     1   --> A'             
     e( 11 - 11) =      6.55786  eV     1   --> A'             
     e( 12 - 12) =      7.21697  eV     1   --> A'             
     e( 13 - 13) =      7.67800  eV     1   --> A''            
     e( 14 - 14) =      8.07318  eV     1   --> A''            
     e( 15 - 15) =      8.09554  eV     1   --> A'             
     e( 16 - 16) =      8.64587  eV     1   --> A'             
     e( 17 - 17) =     12.85229  eV     1   --> A''            
     e( 18 - 18) =     12.96166  eV     1   --> A'             
     e( 19 - 19) =     13.37732  eV     1   --> A''            
     e( 20 - 20) =     13.72082  eV     1   --> A'             
     e( 21 - 21) =     14.90580  eV     1   --> A''            
     e( 22 - 22) =     15.08963  eV     1   --> A'             
     e( 23 - 23) =     15.16045  eV     1   --> A''            
     e( 24 - 24) =     15.77710  eV     1   --> A'             
     e( 25 - 25) =     16.18643  eV     1   --> A'             
     e( 26 - 26) =     16.54850  eV     1   --> A''            
     e( 27 - 27) =     18.07353  eV     1   --> A''            
     e( 28 - 28) =     19.74135  eV     1   --> A'             
     e( 29 - 29) =     20.29553  eV     1   --> A''            
     e( 30 - 30) =     21.08823  eV     1   --> A''            
     e( 31 - 31) =     21.18896  eV     1   --> A'             
     e( 32 - 32) =     21.74333  eV     1   --> A'             
     e( 33 - 33) =     22.44428  eV     1   --> A'             
     e( 34 - 34) =     23.78599  eV     1   --> A'             
     e( 35 - 35) =     24.26601  eV     1   --> A''            
     e( 36 - 36) =     24.58195  eV     1   --> A'             
     e( 37 - 37) =     27.84010  eV     1   --> A'             
     e( 38 - 38) =     29.15559  eV     1   --> A'             
     e( 39 - 39) =     30.25665  eV     1   --> A''            
     e( 40 - 40) =     30.28495  eV     1   --> A'             

 **************************************************************************

 **************************************************************************

                    xk=(   0.49750,   0.00500,   0.00000  )

     Band symmetry, C_s (m)     point group:

     e(  1 -  1) =    -44.21695  eV     1   --> A'             
     e(  2 -  2) =    -44.20711  eV     1   --> A''            
     e(  3 -  3) =    -20.59465  eV     1   --> A'             
     e(  4 -  4) =    -20.57018  eV     1   --> A'             
     e(  5 -  5) =    -20.54626  eV     1   --> A''            
     e(  6 -  6) =    -20.49892  eV     1   --> A'             
     e(  7 -  7) =    -20.48149  eV     1   --> A''            
     e(  8 -  8) =    -20.46634  eV     1   --> A''            
     e(  9 -  9) =     -0.73648  eV     1   --> A'             
     e( 10 - 10) =     -0.63872  eV     1   --> A'             
     e( 11 - 11) =      6.56008  eV     1   --> A'             
     e( 12 - 12) =      7.21910  eV     1   --> A'             
     e( 13 - 13) =      7.67413  eV     1   --> A''            
     e( 14 - 14) =      8.07455  eV     1   --> A''            
     e( 15 - 15) =      8.10259  eV     1   --> A'             
     e( 16 - 16) =      8.64930  eV     1   --> A'             
     e( 17 - 17) =     12.85174  eV     1   --> A''            
     e( 18 - 18) =     12.95545  eV     1   --> A'             
     e( 19 - 19) =     13.37941  eV     1   --> A''            
     e( 20 - 20) =     13.72232  eV     1   --> A'             
     e( 21 - 21) =     14.90203  eV     1   --> A''            
     e( 22 - 22) =     15.09219  eV     1   --> A'             
     e( 23 - 23) =     15.15926  eV     1   --> A''            
     e( 24 - 24) =     15.77503  eV     1   --> A'             
     e( 25 - 25) =     16.18667  eV     1   --> A'             
     e( 26 - 26) =     16.54811  eV     1   --> A''            
     e( 27 - 27) =     18.08126  eV     1   --> A''            
     e( 28 - 28) =     19.73544  eV     1   --> A'             
     e( 29 - 29) =     20.29390  eV     1   --> A''            
     e( 30 - 30) =     21.09125  eV     1   --> A''            
     e( 31 - 31) =     21.18285  eV     1   --> A'             
     e( 32 - 32) =     21.73644  eV     1   --> A'             
     e( 33 - 33) =     22.44390  eV     1   --> A'             
     e( 34 - 34) =     23.78471  eV     1   --> A'             
     e( 35 - 35) =     24.27617  eV     1   --> A''            
     e( 36 - 36) =     24.58757  eV     1   --> A'             
     e( 37 - 37) =     27.83829  eV     1   --> A'             
     e( 38 - 38) =     29.16883  eV     1   --> A'             
     e( 39 - 39) =     30.25130  eV     1   --> A''            
     e( 40 - 40) =     30.29425  eV     1   --> A'             

 **************************************************************************

 **************************************************************************

                    xk=(   0.49667,   0.00667,   0.00000  )

     Band symmetry, C_s (m)     point group:

     e(  1 -  1) =    -44.21697  eV     1   --> A'             
     e(  2 -  2) =    -44.20714  eV     1   --> A''            
     e(  3 -  3) =    -20.59471  eV     1   --> A'             
     e(  4 -  4) =    -20.57015  eV     1   --> A'             
     e(  5 -  5) =    -20.54623  eV     1   --> A''            
     e(  6 -  6) =    -20.49866  eV     1   --> A'             
     e(  7 -  7) =    -20.48125  eV     1   --> A''            
     e(  8 -  8) =    -20.46637  eV     1   --> A''            
     e(  9 -  9) =     -0.73953  eV     1   --> A'             
     e( 10 - 10) =     -0.63982  eV     1   --> A'             
     e( 11 - 11) =      6.56207  eV     1   --> A'             
     e( 12 - 12) =      7.22121  eV     1   --> A'             
     e( 13 - 13) =      7.67022  eV     1   --> A''            
     e( 14 - 14) =      8.07598  eV     1   --> A''            
     e( 15 - 15) =      8.10999  eV     1   --> A'             
     e( 16 - 16) =      8.65282  eV     1   --> A'             
     e( 17 - 17) =     12.85101  eV     1   --> A''            
     e( 18 - 18) =     12.94885  eV     1   --> A'             
     e( 19 - 19) =     13.38168  eV     1   --> A''            
     e( 20 - 20) =     13.72419  eV     1   --> A'             
     e( 21 - 21) =     14.89823  eV     1   --> A''            
     e( 22 - 22) =     15.09470  eV     1   --> A'             
     e( 23 - 23) =     15.15808  eV     1   --> A''            
     e( 24 - 24) =     15.77294  eV     1   --> A'             
     e( 25 - 25) =     16.18695  eV     1   --> A'             
     e( 26 - 26) =     16.54771  eV     1   --> A''            
     e( 27 - 27) =     18.08917  eV     1   --> A''            
     e( 28 - 28) =     19.72924  eV     1   --> A'             
     e( 29 - 29) =     20.29196  eV     1   --> A''            
     e( 30 - 30) =     21.09439  eV     1   --> A''            
     e( 31 - 31) =     21.17592  eV     1   --> A'             
     e( 32 - 32) =     21.72909  eV     1   --> A'             
     e( 33 - 33) =     22.44431  eV     1   --> A'             
     e( 34 - 34) =     23.78360  eV     1   --> A'             
     e( 35 - 35) =     24.28663  eV     1   --> A''            
     e( 36 - 36) =     24.59415  eV     1   --> A'             
     e( 37 - 37) =     27.83638  eV     1   --> A'             
     e( 38 - 38) =     29.18212  eV     1   --> A'             
     e( 39 - 39) =     30.24553  eV     1   --> A''            
     e( 40 - 40) =     30.30337  eV     1   --> A'             

 **************************************************************************

 **************************************************************************

                    xk=(   0.49583,   0.00833,   0.00000  )

     Band symmetry, C_s (m)     point group:

     e(  1 -  1) =    -44.21700  eV     1   --> A'             
     e(  2 -  2) =    -44.20716  eV     1   --> A''            
     e(  3 -  3) =    -20.59478  eV     1   --> A'             
     e(  4 -  4) =    -20.57013  eV     1   --> A'             
     e(  5 -  5) =    -20.54620  eV     1   --> A''            
     e(  6 -  6) =    -20.49838  eV     1   --> A'             
     e(  7 -  7) =    -20.48100  eV     1   --> A''            
     e(  8 -  8) =    -20.46640  eV     1   --> A''            
     e(  9 -  9) =     -0.74262  eV     1   --> A'             
     e( 10 - 10) =     -0.64088  eV     1   --> A'             
     e( 11 - 11) =      6.56385  eV     1   --> A'             
     e( 12 - 12) =      7.22329  eV     1   --> A'             
     e( 13 - 13) =      7.66626  eV     1   --> A''            
     e( 14 - 14) =      8.07746  eV     1   --> A''            
     e( 15 - 15) =      8.11774  eV     1   --> A'             
     e( 16 - 16) =      8.65641  eV     1   --> A'             
     e( 17 - 17) =     12.85008  eV     1   --> A''            
     e( 18 - 18) =     12.94189  eV     1   --> A'             
     e( 19 - 19) =     13.38414  eV     1   --> A''            
     e( 20 - 20) =     13.72643  eV     1   --> A'             
     e( 21 - 21) =     14.89440  eV     1   --> A''            
     e( 22 - 22) =     15.09715  eV     1   --> A'             
     e( 23 - 23) =     15.15692  eV     1   --> A''            
     e( 24 - 24) =     15.77084  eV     1   --> A'             
     e( 25 - 25) =     16.18729  eV     1   --> A'             
     e( 26 - 26) =     16.54729  eV     1   --> A''            
     e( 27 - 27) =     18.09726  eV     1   --> A''            
     e( 28 - 28) =     19.72275  eV     1   --> A'             
     e( 29 - 29) =     20.28970  eV     1   --> A''            
     e( 30 - 30) =     21.09762  eV     1   --> A''            
     e( 31 - 31) =     21.16816  eV     1   --> A'             
     e( 32 - 32) =     21.72132  eV     1   --> A'             
     e( 33 - 33) =     22.44551  eV     1   --> A'             
     e( 34 - 34) =     23.78266  eV     1   --> A'             
     e( 35 - 35) =     24.29739  eV     1   --> A''            
     e( 36 - 36) =     24.60167  eV     1   --> A'             
     e( 37 - 37) =     27.83436  eV     1   --> A'             
     e( 38 - 38) =     29.19545  eV     1   --> A'             
     e( 39 - 39) =     30.23936  eV     1   --> A''            
     e( 40 - 40) =     30.31233  eV     1   --> A'             

 **************************************************************************

 **************************************************************************

                    xk=(   0.49500,   0.01000,   0.00000  )

     Band symmetry, C_s (m)     point group:

     e(  1 -  1) =    -44.21702  eV     1   --> A'             
     e(  2 -  2) =    -44.20719  eV     1   --> A''            
     e(  3 -  3) =    -20.59484  eV     1   --> A'             
     e(  4 -  4) =    -20.57011  eV     1   --> A'             
     e(  5 -  5) =    -20.54619  eV     1   --> A''            
     e(  6 -  6) =    -20.49810  eV     1   --> A'             
     e(  7 -  7) =    -20.48074  eV     1   --> A''            
     e(  8 -  8) =    -20.46643  eV     1   --> A''            
     e(  9 -  9) =     -0.74575  eV     1   --> A'             
     e( 10 - 10) =     -0.64191  eV     1   --> A'             
     e( 11 - 11) =      6.56541  eV     1   --> A'             
     e( 12 - 12) =      7.22533  eV     1   --> A'             
     e( 13 - 13) =      7.66225  eV     1   --> A''            
     e( 14 - 14) =      8.07899  eV     1   --> A''            
     e( 15 - 15) =      8.12585  eV     1   --> A'             
     e( 16 - 16) =      8.66009  eV     1   --> A'             
     e( 17 - 17) =     12.84897  eV     1   --> A''            
     e( 18 - 18) =     12.93457  eV     1   --> A'             
     e( 19 - 19) =     13.38677  eV     1   --> A''            
     e( 20 - 20) =     13.72902  eV     1   --> A'             
     e( 21 - 21) =     14.89054  eV     1   --> A''            
     e( 22 - 22) =     15.09956  eV     1   --> A'             
     e( 23 - 23) =     15.15576  eV     1   --> A''            
     e( 24 - 24) =     15.76871  eV     1   --> A'             
     e( 25 - 25) =     16.18769  eV     1   --> A'             
     e( 26 - 26) =     16.54685  eV     1   --> A''            
     e( 27 - 27) =     18.10553  eV     1   --> A''            
     e( 28 - 28) =     19.71597  eV     1   --> A'             
     e( 29 - 29) =     20.28714  eV     1   --> A''            
     e( 30 - 30) =     21.10096  eV     1   --> A''            
     e( 31 - 31) =     21.15954  eV     1   --> A'             
     e( 32 - 32) =     21.71319  eV     1   --> A'             
     e( 33 - 33) =     22.44746  eV     1   --> A'             
     e( 34 - 34) =     23.78192  eV     1   --> A'             
     e( 35 - 35) =     24.30844  eV     1   --> A''            
     e( 36 - 36) =     24.61008  eV     1   --> A'             
     e( 37 - 37) =     27.83223  eV     1   --> A'             
     e( 38 - 38) =     29.20880  eV     1   --> A'             
     e( 39 - 39) =     30.23278  eV     1   --> A''            
     e( 40 - 40) =     30.32110  eV     1   --> A'             

 **************************************************************************

 **************************************************************************

                    xk=(   0.49417,   0.01167,   0.00000  )

     Band symmetry, C_s (m)     point group:

     e(  1 -  1) =    -44.21704  eV     1   --> A'             
     e(  2 -  2) =    -44.20722  eV     1   --> A''            
     e(  3 -  3) =    -20.59491  eV     1   --> A'             
     e(  4 -  4) =    -20.57010  eV     1   --> A'             
     e(  5 -  5) =    -20.54618  eV     1   --> A''            
     e(  6 -  6) =    -20.49780  eV     1   --> A'             
     e(  7 -  7) =    -20.48048  eV     1   --> A''            
     e(  8 -  8) =    -20.46646  eV     1   --> A''            
     e(  9 -  9) =     -0.74892  eV     1   --> A'             
     e( 10 - 10) =     -0.64291  eV     1   --> A'             
     e( 11 - 11) =      6.56676  eV     1   --> A'             
     e( 12 - 12) =      7.22735  eV     1   --> A'             
     e( 13 - 13) =      7.65820  eV     1   --> A''            
     e( 14 - 14) =      8.08056  eV     1   --> A''            
     e( 15 - 15) =      8.13430  eV     1   --> A'             
     e( 16 - 16) =      8.66385  eV     1   --> A'             
     e( 17 - 17) =     12.84770  eV     1   --> A''            
     e( 18 - 18) =     12.92691  eV     1   --> A'             
     e( 19 - 19) =     13.38958  eV     1   --> A''            
     e( 20 - 20) =     13.73196  eV     1   --> A'             
     e( 21 - 21) =     14.88666  eV     1   --> A''            
     e( 22 - 22) =     15.10192  eV     1   --> A'             
     e( 23 - 23) =     15.15461  eV     1   --> A''            
     e( 24 - 24) =     15.76657  eV     1   --> A'             
     e( 25 - 25) =     16.18814  eV     1   --> A'             
     e( 26 - 26) =     16.54640  eV     1   --> A''            
     e( 27 - 27) =     18.11399  eV     1   --> A''            
     e( 28 - 28) =     19.70890  eV     1   --> A'             
     e( 29 - 29) =     20.28430  eV     1   --> A''            
     e( 30 - 30) =     21.10439  eV     1   --> A''            
     e( 31 - 31) =     21.15007  eV     1   --> A'             
     e( 32 - 32) =     21.70479  eV     1   --> A'             
     e( 33 - 33) =     22.45012  eV     1   --> A'             
     e( 34 - 34) =     23.78142  eV     1   --> A'             
     e( 35 - 35) =     24.31980  eV     1   --> A''            
     e( 36 - 36) =     24.61937  eV     1   --> A'             
     e( 37 - 37) =     27.83001  eV     1   --> A'             
     e( 38 - 38) =     29.22221  eV     1   --> A'             
     e( 39 - 39) =     30.22581  eV     1   --> A''            
     e( 40 - 40) =     30.32971  eV     1   --> A'             

 **************************************************************************

 **************************************************************************

                    xk=(   0.49333,   0.01333,   0.00000  )

     Band symmetry, C_s (m)     point group:

     e(  1 -  1) =    -44.21707  eV     1   --> A'             
     e(  2 -  2) =    -44.20724  eV     1   --> A''            
     e(  3 -  3) =    -20.59497  eV     1   --> A'             
     e(  4 -  4) =    -20.57009  eV     1   --> A'             
     e(  5 -  5) =    -20.54617  eV     1   --> A''            
     e(  6 -  6) =    -20.49750  eV     1   --> A'             
     e(  7 -  7) =    -20.48020  eV     1   --> A''            
     e(  8 -  8) =    -20.46649  eV     1   --> A''            
     e(  9 -  9) =     -0.75211  eV     1   --> A'             
     e( 10 - 10) =     -0.64389  eV     1   --> A'             
     e( 11 - 11) =      6.56789  eV     1   --> A'             
     e( 12 - 12) =      7.22933  eV     1   --> A'             
     e( 13 - 13) =      7.65412  eV     1   --> A''            
     e( 14 - 14) =      8.08218  eV     1   --> A''            
     e( 15 - 15) =      8.14308  eV     1   --> A'             
     e( 16 - 16) =      8.66769  eV     1   --> A'             
     e( 17 - 17) =     12.84624  eV     1   --> A''            
     e( 18 - 18) =     12.91891  eV     1   --> A'             
     e( 19 - 19) =     13.39256  eV     1   --> A''            
     e( 20 - 20) =     13.73523  eV     1   --> A'             
     e( 21 - 21) =     14.88276  eV     1   --> A''            
     e( 22 - 22) =     15.10422  eV     1   --> A'             
     e( 23 - 23) =     15.15348  eV     1   --> A''            
     e( 24 - 24) =     15.76441  eV     1   --> A'             
     e( 25 - 25) =     16.18865  eV     1   --> A'             
     e( 26 - 26) =     16.54594  eV     1   --> A''            
     e( 27 - 27) =     18.12263  eV     1   --> A''            
     e( 28 - 28) =     19.70157  eV     1   --> A'             
     e( 29 - 29) =     20.28116  eV     1   --> A''            
     e( 30 - 30) =     21.10790  eV     1   --> A''            
     e( 31 - 31) =     21.13970  eV     1   --> A'             
     e( 32 - 32) =     21.69617  eV     1   --> A'             
     e( 33 - 33) =     22.45345  eV     1   --> A'             
     e( 34 - 34) =     23.78113  eV     1   --> A'             
     e( 35 - 35) =     24.33145  eV     1   --> A''            
     e( 36 - 36) =     24.62950  eV     1   --> A'             
     e( 37 - 37) =     27.82769  eV     1   --> A'             
     e( 38 - 38) =     29.23565  eV     1   --> A'             
     e( 39 - 39) =     30.21843  eV     1   --> A''            
     e( 40 - 40) =     30.33811  eV     1   --> A'             

 **************************************************************************

 **************************************************************************

                    xk=(   0.49250,   0.01500,   0.00000  )

     Band symmetry, C_s (m)     point group:

     e(  1 -  1) =    -44.21709  eV     1   --> A'             
     e(  2 -  2) =    -44.20727  eV     1   --> A''            
     e(  3 -  3) =    -20.59504  eV     1   --> A'             
     e(  4 -  4) =    -20.57009  eV     1   --> A'             
     e(  5 -  5) =    -20.54618  eV     1   --> A''            
     e(  6 -  6) =    -20.49719  eV     1   --> A'             
     e(  7 -  7) =    -20.47993  eV     1   --> A''            
     e(  8 -  8) =    -20.46652  eV     1   --> A''            
     e(  9 -  9) =     -0.75533  eV     1   --> A'             
     e( 10 - 10) =     -0.64483  eV     1   --> A'             
     e( 11 - 11) =      6.56882  eV     1   --> A'             
     e( 12 - 12) =      7.23127  eV     1   --> A'             
     e( 13 - 13) =      7.65000  eV     1   --> A''            
     e( 14 - 14) =      8.08384  eV     1   --> A''            
     e( 15 - 15) =      8.15220  eV     1   --> A'             
     e( 16 - 16) =      8.67162  eV     1   --> A'             
     e( 17 - 17) =     12.84462  eV     1   --> A''            
     e( 18 - 18) =     12.91060  eV     1   --> A'             
     e( 19 - 19) =     13.39570  eV     1   --> A''            
     e( 20 - 20) =     13.73882  eV     1   --> A'             
     e( 21 - 21) =     14.87883  eV     1   --> A''            
     e( 22 - 22) =     15.10646  eV     1   --> A'             
     e( 23 - 23) =     15.15236  eV     1   --> A''            
     e( 24 - 24) =     15.76222  eV     1   --> A'             
     e( 25 - 25) =     16.18923  eV     1   --> A'             
     e( 26 - 26) =     16.54545  eV     1   --> A''            
     e( 27 - 27) =     18.13143  eV     1   --> A''            
     e( 28 - 28) =     19.69396  eV     1   --> A'             
     e( 29 - 29) =     20.27776  eV     1   --> A''            
     e( 30 - 30) =     21.11149  eV     1   --> A''            
     e( 31 - 31) =     21.12843  eV     1   --> A'             
     e( 32 - 32) =     21.68737  eV     1   --> A'             
     e( 33 - 33) =     22.45740  eV     1   --> A'             
     e( 34 - 34) =     23.78112  eV     1   --> A'             
     e( 35 - 35) =     24.34340  eV     1   --> A''            
     e( 36 - 36) =     24.64042  eV     1   --> A'             
     e( 37 - 37) =     27.82526  eV     1   --> A'             
     e( 38 - 38) =     29.24912  eV     1   --> A'             
     e( 39 - 39) =     30.21065  eV     1   --> A''            
     e( 40 - 40) =     30.34631  eV     1   --> A'             

 **************************************************************************

 **************************************************************************

                    xk=(   0.49167,   0.01666,   0.00000  )

     Band symmetry, C_s (m)     point group:

     e(  1 -  1) =    -44.21712  eV     1   --> A'             
     e(  2 -  2) =    -44.20729  eV     1   --> A''            
     e(  3 -  3) =    -20.59511  eV     1   --> A'             
     e(  4 -  4) =    -20.57010  eV     1   --> A'             
     e(  5 -  5) =    -20.54618  eV     1   --> A''            
     e(  6 -  6) =    -20.49689  eV     1   --> A'             
     e(  7 -  7) =    -20.47964  eV     1   --> A''            
     e(  8 -  8) =    -20.46655  eV     1   --> A''            
     e(  9 -  9) =     -0.75858  eV     1   --> A'             
     e( 10 - 10) =     -0.64576  eV     1   --> A'             
     e( 11 - 11) =      6.56955  eV     1   --> A'             
     e( 12 - 12) =      7.23319  eV     1   --> A'             
     e( 13 - 13) =      7.64585  eV     1   --> A''            
     e( 14 - 14) =      8.08554  eV     1   --> A''            
     e( 15 - 15) =      8.16164  eV     1   --> A'             
     e( 16 - 16) =      8.67563  eV     1   --> A'             
     e( 17 - 17) =     12.84284  eV     1   --> A''            
     e( 18 - 18) =     12.90197  eV     1   --> A'             
     e( 19 - 19) =     13.39899  eV     1   --> A''            
     e( 20 - 20) =     13.74270  eV     1   --> A'             
     e( 21 - 21) =     14.87489  eV     1   --> A''            
     e( 22 - 22) =     15.10864  eV     1   --> A'             
     e( 23 - 23) =     15.15125  eV     1   --> A''            
     e( 24 - 24) =     15.76001  eV     1   --> A'             
     e( 25 - 25) =     16.18988  eV     1   --> A'             
     e( 26 - 26) =     16.54494  eV     1   --> A''            
     e( 27 - 27) =     18.14041  eV     1   --> A''            
     e( 28 - 28) =     19.68608  eV     1   --> A'             
     e( 29 - 29) =     20.27408  eV     1   --> A''            
     e( 30 - 30) =     21.11515  eV     1   --> A''            
     e( 31 - 31) =     21.11627  eV     1   --> A'             
     e( 32 - 32) =     21.67847  eV     1   --> A'             
     e( 33 - 33) =     22.46192  eV     1   --> A'             
     e( 34 - 34) =     23.78138  eV     1   --> A'             
     e( 35 - 35) =     24.35563  eV     1   --> A''            
     e( 36 - 36) =     24.65208  eV     1   --> A'             
     e( 37 - 37) =     27.82272  eV     1   --> A'             
     e( 38 - 38) =     29.26260  eV     1   --> A'             
     e( 39 - 39) =     30.20247  eV     1   --> A''            
     e( 40 - 40) =     30.35430  eV     1   --> A'             

 **************************************************************************

 **************************************************************************

                    xk=(   0.49083,   0.01833,   0.00000  )

     Band symmetry, C_s (m)     point group:

     e(  1 -  1) =    -44.21715  eV     1   --> A'             
     e(  2 -  2) =    -44.20732  eV     1   --> A''            
     e(  3 -  3) =    -20.59517  eV     1   --> A'             
     e(  4 -  4) =    -20.57011  eV     1   --> A'             
     e(  5 -  5) =    -20.54619  eV     1   --> A''            
     e(  6 -  6) =    -20.49657  eV     1   --> A'             
     e(  7 -  7) =    -20.47935  eV     1   --> A''            
     e(  8 -  8) =    -20.46658  eV     1   --> A''            
     e(  9 -  9) =     -0.76185  eV     1   --> A'             
     e( 10 - 10) =     -0.64667  eV     1   --> A'             
     e( 11 - 11) =      6.57007  eV     1   --> A'             
     e( 12 - 12) =      7.23507  eV     1   --> A'             
     e( 13 - 13) =      7.64167  eV     1   --> A''            
     e( 14 - 14) =      8.08728  eV     1   --> A''            
     e( 15 - 15) =      8.17140  eV     1   --> A'             
     e( 16 - 16) =      8.67973  eV     1   --> A'             
     e( 17 - 17) =     12.84090  eV     1   --> A''            
     e( 18 - 18) =     12.89305  eV     1   --> A'             
     e( 19 - 19) =     13.40245  eV     1   --> A''            
     e( 20 - 20) =     13.74688  eV     1   --> A'             
     e( 21 - 21) =     14.87093  eV     1   --> A''            
     e( 22 - 22) =     15.11077  eV     1   --> A'             
     e( 23 - 23) =     15.15016  eV     1   --> A''            
     e( 24 - 24) =     15.75777  eV     1   --> A'             
     e( 25 - 25) =     16.19060  eV     1   --> A'             
     e( 26 - 26) =     16.54442  eV     1   --> A''            
     e( 27 - 27) =     18.14956  eV     1   --> A''            
     e( 28 - 28) =     19.67794  eV     1   --> A'             
     e( 29 - 29) =     20.27016  eV     1   --> A''            
     e( 30 - 30) =     21.10322  eV     1   --> A'             
     e( 31 - 31) =     21.11887  eV     1   --> A''            
     e( 32 - 32) =     21.66951  eV     1   --> A'             
     e( 33 - 33) =     22.46699  eV     1   --> A'             
     e( 34 - 34) =     23.78197  eV     1   --> A'             
     e( 35 - 35) =     24.36815  eV     1   --> A''            
     e( 36 - 36) =     24.66450  eV     1   --> A'             
     e( 37 - 37) =     27.82008  eV     1   --> A'             
     e( 38 - 38) =     29.27612  eV     1   --> A'             
     e( 39 - 39) =     30.19390  eV     1   --> A''            
     e( 40 - 40) =     30.36209  eV     1   --> A'             

 **************************************************************************

 **************************************************************************

                    xk=(   0.49000,   0.02000,   0.00000  )

     Band symmetry, C_s (m)     point group:

     e(  1 -  1) =    -44.21718  eV     1   --> A'             
     e(  2 -  2) =    -44.20734  eV     1   --> A''            
     e(  3 -  3) =    -20.59524  eV     1   --> A'             
     e(  4 -  4) =    -20.57013  eV     1   --> A'             
     e(  5 -  5) =    -20.54621  eV     1   --> A''            
     e(  6 -  6) =    -20.49624  eV     1   --> A'             
     e(  7 -  7) =    -20.47905  eV     1   --> A''            
     e(  8 -  8) =    -20.46662  eV     1   --> A''            
     e(  9 -  9) =     -0.76514  eV     1   --> A'             
     e( 10 - 10) =     -0.64755  eV     1   --> A'             
     e( 11 - 11) =      6.57040  eV     1   --> A'             
     e( 12 - 12) =      7.23692  eV     1   --> A'             
     e( 13 - 13) =      7.63745  eV     1   --> A''            
     e( 14 - 14) =      8.08905  eV     1   --> A''            
     e( 15 - 15) =      8.18147  eV     1   --> A'             
     e( 16 - 16) =      8.68392  eV     1   --> A'             
     e( 17 - 17) =     12.83881  eV     1   --> A''            
     e( 18 - 18) =     12.88385  eV     1   --> A'             
     e( 19 - 19) =     13.40604  eV     1   --> A''            
     e( 20 - 20) =     13.75134  eV     1   --> A'             
     e( 21 - 21) =     14.86695  eV     1   --> A''            
     e( 22 - 22) =     15.11284  eV     1   --> A'             
     e( 23 - 23) =     15.14908  eV     1   --> A''            
     e( 24 - 24) =     15.75550  eV     1   --> A'             
     e( 25 - 25) =     16.19139  eV     1   --> A'             
     e( 26 - 26) =     16.54386  eV     1   --> A''            
     e( 27 - 27) =     18.15888  eV     1   --> A''            
     e( 28 - 28) =     19.66955  eV     1   --> A'             
     e( 29 - 29) =     20.26598  eV     1   --> A''            
     e( 30 - 30) =     21.08929  eV     1   --> A'             
     e( 31 - 31) =     21.12265  eV     1   --> A''            
     e( 32 - 32) =     21.66054  eV     1   --> A'             
     e( 33 - 33) =     22.47255  eV     1   --> A'             
     e( 34 - 34) =     23.78290  eV     1   --> A'             
     e( 35 - 35) =     24.38095  eV     1   --> A''            
     e( 36 - 36) =     24.67761  eV     1   --> A'             
     e( 37 - 37) =     27.81734  eV     1   --> A'             
     e( 38 - 38) =     29.28965  eV     1   --> A'             
     e( 39 - 39) =     30.18493  eV     1   --> A''            
     e( 40 - 40) =     30.36967  eV     1   --> A'             

 **************************************************************************

 **************************************************************************

                    xk=(   0.48916,   0.02166,   0.00000  )

     Band symmetry, C_s (m)     point group:

     e(  1 -  1) =    -44.21720  eV     1   --> A'             
     e(  2 -  2) =    -44.20737  eV     1   --> A''            
     e(  3 -  3) =    -20.59531  eV     1   --> A'             
     e(  4 -  4) =    -20.57015  eV     1   --> A'             
     e(  5 -  5) =    -20.54623  eV     1   --> A''            
     e(  6 -  6) =    -20.49591  eV     1   --> A'             
     e(  7 -  7) =    -20.47875  eV     1   --> A''            
     e(  8 -  8) =    -20.46665  eV     1   --> A''            
     e(  9 -  9) =     -0.76845  eV     1   --> A'             
     e( 10 - 10) =     -0.64841  eV     1   --> A'             
     e( 11 - 11) =      6.57054  eV     1   --> A'             
     e( 12 - 12) =      7.23873  eV     1   --> A'             
     e( 13 - 13) =      7.63322  eV     1   --> A''            
     e( 14 - 14) =      8.09086  eV     1   --> A''            
     e( 15 - 15) =      8.19184  eV     1   --> A'             
     e( 16 - 16) =      8.68820  eV     1   --> A'             
     e( 17 - 17) =     12.83657  eV     1   --> A''            
     e( 18 - 18) =     12.87439  eV     1   --> A'             
     e( 19 - 19) =     13.40978  eV     1   --> A''            
     e( 20 - 20) =     13.75607  eV     1   --> A'             
     e( 21 - 21) =     14.86296  eV     1   --> A''            
     e( 22 - 22) =     15.11485  eV     1   --> A'             
     e( 23 - 23) =     15.14801  eV     1   --> A''            
     e( 24 - 24) =     15.75320  eV     1   --> A'             
     e( 25 - 25) =     16.19225  eV     1   --> A'             
     e( 26 - 26) =     16.54329  eV     1   --> A''            
     e( 27 - 27) =     18.16836  eV     1   --> A''            
     e( 28 - 28) =     19.66091  eV     1   --> A'             
     e( 29 - 29) =     20.26157  eV     1   --> A''            
     e( 30 - 30) =     21.07448  eV     1   --> A'             
     e( 31 - 31) =     21.12648  eV     1   --> A''            
     e( 32 - 32) =     21.65159  eV     1   --> A'             
     e( 33 - 33) =     22.47854  eV     1   --> A'             
     e( 34 - 34) =     23.78419  eV     1   --> A'             
     e( 35 - 35) =     24.39403  eV     1   --> A''            
     e( 36 - 36) =     24.69138  eV     1   --> A'             
     e( 37 - 37) =     27.81449  eV     1   --> A'             
     e( 38 - 38) =     29.30319  eV     1   --> A'             
     e( 39 - 39) =     30.17557  eV     1   --> A''            
     e( 40 - 40) =     30.37702  eV     1   --> A'             

 **************************************************************************

 **************************************************************************

                    xk=(   0.48833,   0.02333,   0.00000  )

     Band symmetry, C_s (m)     point group:

     e(  1 -  1) =    -44.21722  eV     1   --> A'             
     e(  2 -  2) =    -44.20739  eV     1   --> A''            
     e(  3 -  3) =    -20.59537  eV     1   --> A'             
     e(  4 -  4) =    -20.57018  eV     1   --> A'             
     e(  5 -  5) =    -20.54626  eV     1   --> A''            
     e(  6 -  6) =    -20.49557  eV     1   --> A'             
     e(  7 -  7) =    -20.47844  eV     1   --> A''            
     e(  8 -  8) =    -20.46668  eV     1   --> A''            
     e(  9 -  9) =     -0.77178  eV     1   --> A'             
     e( 10 - 10) =     -0.64926  eV     1   --> A'             
     e( 11 - 11) =      6.57049  eV     1   --> A'             
     e( 12 - 12) =      7.24052  eV     1   --> A'             
     e( 13 - 13) =      7.62895  eV     1   --> A''            
     e( 14 - 14) =      8.09271  eV     1   --> A''            
     e( 15 - 15) =      8.20250  eV     1   --> A'             
     e( 16 - 16) =      8.69257  eV     1   --> A'             
     e( 17 - 17) =     12.83420  eV     1   --> A''            
     e( 18 - 18) =     12.86467  eV     1   --> A'             
     e( 19 - 19) =     13.41366  eV     1   --> A''            
     e( 20 - 20) =     13.76105  eV     1   --> A'             
     e( 21 - 21) =     14.85897  eV     1   --> A''            
     e( 22 - 22) =     15.11680  eV     1   --> A'             
     e( 23 - 23) =     15.14695  eV     1   --> A''            
     e( 24 - 24) =     15.75087  eV     1   --> A'             
     e( 25 - 25) =     16.19320  eV     1   --> A'             
     e( 26 - 26) =     16.54269  eV     1   --> A''            
     e( 27 - 27) =     18.17801  eV     1   --> A''            
     e( 28 - 28) =     19.65203  eV     1   --> A'             
     e( 29 - 29) =     20.25693  eV     1   --> A''            
     e( 30 - 30) =     21.05882  eV     1   --> A'             
     e( 31 - 31) =     21.13035  eV     1   --> A''            
     e( 32 - 32) =     21.64270  eV     1   --> A'             
     e( 33 - 33) =     22.48494  eV     1   --> A'             
     e( 34 - 34) =     23.78588  eV     1   --> A'             
     e( 35 - 35) =     24.40740  eV     1   --> A''            
     e( 36 - 36) =     24.70577  eV     1   --> A'             
     e( 37 - 37) =     27.81154  eV     1   --> A'             
     e( 38 - 38) =     29.31675  eV     1   --> A'             
     e( 39 - 39) =     30.16585  eV     1   --> A''            
     e( 40 - 40) =     30.38416  eV     1   --> A'             

 **************************************************************************

 **************************************************************************

                    xk=(   0.48750,   0.02500,   0.00000  )

     Band symmetry, C_s (m)     point group:

     e(  1 -  1) =    -44.21725  eV     1   --> A'             
     e(  2 -  2) =    -44.20742  eV     1   --> A''            
     e(  3 -  3) =    -20.59544  eV     1   --> A'             
     e(  4 -  4) =    -20.57021  eV     1   --> A'             
     e(  5 -  5) =    -20.54630  eV     1   --> A''            
     e(  6 -  6) =    -20.49523  eV     1   --> A'             
     e(  7 -  7) =    -20.47813  eV     1   --> A''            
     e(  8 -  8) =    -20.46671  eV     1   --> A''            
     e(  9 -  9) =     -0.77512  eV     1   --> A'             
     e( 10 - 10) =     -0.65009  eV     1   --> A'             
     e( 11 - 11) =      6.57026  eV     1   --> A'             
     e( 12 - 12) =      7.24227  eV     1   --> A'             
     e( 13 - 13) =      7.62467  eV     1   --> A''            
     e( 14 - 14) =      8.09458  eV     1   --> A''            
     e( 15 - 15) =      8.21346  eV     1   --> A'             
     e( 16 - 16) =      8.69703  eV     1   --> A'             
     e( 17 - 17) =     12.83169  eV     1   --> A''            
     e( 18 - 18) =     12.85471  eV     1   --> A'             
     e( 19 - 19) =     13.41766  eV     1   --> A''            
     e( 20 - 20) =     13.76627  eV     1   --> A'             
     e( 21 - 21) =     14.85496  eV     1   --> A''            
     e( 22 - 22) =     15.11869  eV     1   --> A'             
     e( 23 - 23) =     15.14591  eV     1   --> A''            
     e( 24 - 24) =     15.74851  eV     1   --> A'             
     e( 25 - 25) =     16.19423  eV     1   --> A'             
     e( 26 - 26) =     16.54206  eV     1   --> A''            
     e( 27 - 27) =     18.18779  eV     1   --> A''            
     e( 28 - 28) =     19.64290  eV     1   --> A'             
     e( 29 - 29) =     20.25208  eV     1   --> A''            
     e( 30 - 30) =     21.04231  eV     1   --> A'             
     e( 31 - 31) =     21.13425  eV     1   --> A''            
     e( 32 - 32) =     21.63390  eV     1   --> A'             
     e( 33 - 33) =     22.49169  eV     1   --> A'             
     e( 34 - 34) =     23.78799  eV     1   --> A'             
     e( 35 - 35) =     24.42102  eV     1   --> A''            
     e( 36 - 36) =     24.72075  eV     1   --> A'             
     e( 37 - 37) =     27.80850  eV     1   --> A'             
     e( 38 - 38) =     29.33029  eV     1   --> A'             
     e( 39 - 39) =     30.15572  eV     1   --> A''            
     e( 40 - 40) =     30.39117  eV     1   --> A'             

 **************************************************************************

 **************************************************************************

                    xk=(   0.48666,   0.02666,   0.00000  )

     Band symmetry, C_s (m)     point group:

     e(  1 -  1) =    -44.21728  eV     1   --> A'             
     e(  2 -  2) =    -44.20744  eV     1   --> A''            
     e(  3 -  3) =    -20.59551  eV     1   --> A'             
     e(  4 -  4) =    -20.57025  eV     1   --> A'             
     e(  5 -  5) =    -20.54633  eV     1   --> A''            
     e(  6 -  6) =    -20.49487  eV     1   --> A'             
     e(  7 -  7) =    -20.47781  eV     1   --> A''            
     e(  8 -  8) =    -20.46674  eV     1   --> A''            
     e(  9 -  9) =     -0.77847  eV     1   --> A'             
     e( 10 - 10) =     -0.65090  eV     1   --> A'             
     e( 11 - 11) =      6.56985  eV     1   --> A'             
     e( 12 - 12) =      7.24399  eV     1   --> A'             
     e( 13 - 13) =      7.62037  eV     1   --> A''            
     e( 14 - 14) =      8.09649  eV     1   --> A''            
     e( 15 - 15) =      8.22469  eV     1   --> A'             
     e( 16 - 16) =      8.70158  eV     1   --> A'             
     e( 17 - 17) =     12.82905  eV     1   --> A''            
     e( 18 - 18) =     12.84451  eV     1   --> A'             
     e( 19 - 19) =     13.42178  eV     1   --> A''            
     e( 20 - 20) =     13.77172  eV     1   --> A'             
     e( 21 - 21) =     14.85095  eV     1   --> A''            
     e( 22 - 22) =     15.12051  eV     1   --> A'             
     e( 23 - 23) =     15.14488  eV     1   --> A''            
     e( 24 - 24) =     15.74611  eV     1   --> A'             
     e( 25 - 25) =     16.19535  eV     1   --> A'             
     e( 26 - 26) =     16.54141  eV     1   --> A''            
     e( 27 - 27) =     18.19775  eV     1   --> A''            
     e( 28 - 28) =     19.63354  eV     1   --> A'             
     e( 29 - 29) =     20.24701  eV     1   --> A''            
     e( 30 - 30) =     21.02500  eV     1   --> A'             
     e( 31 - 31) =     21.13819  eV     1   --> A''            
     e( 32 - 32) =     21.62520  eV     1   --> A'             
     e( 33 - 33) =     22.49876  eV     1   --> A'             
     e( 34 - 34) =     23.79055  eV     1   --> A'             
     e( 35 - 35) =     24.43493  eV     1   --> A''            
     e( 36 - 36) =     24.73628  eV     1   --> A'             
     e( 37 - 37) =     27.80534  eV     1   --> A'             
     e( 38 - 38) =     29.34385  eV     1   --> A'             
     e( 39 - 39) =     30.14521  eV     1   --> A''            
     e( 40 - 40) =     30.39785  eV     1   --> A'             

 **************************************************************************

 **************************************************************************

                    xk=(   0.48583,   0.02833,   0.00000  )

     Band symmetry, C_s (m)     point group:

     e(  1 -  1) =    -44.21731  eV     1   --> A'             
     e(  2 -  2) =    -44.20747  eV     1   --> A''            
     e(  3 -  3) =    -20.59558  eV     1   --> A'             
     e(  4 -  4) =    -20.57030  eV     1   --> A'             
     e(  5 -  5) =    -20.54638  eV     1   --> A''            
     e(  6 -  6) =    -20.49452  eV     1   --> A'             
     e(  7 -  7) =    -20.47749  eV     1   --> A''            
     e(  8 -  8) =    -20.46677  eV     1   --> A''            
     e(  9 -  9) =     -0.78183  eV     1   --> A'             
     e( 10 - 10) =     -0.65170  eV     1   --> A'             
     e( 11 - 11) =      6.56926  eV     1   --> A'             
     e( 12 - 12) =      7.24567  eV     1   --> A'             
     e( 13 - 13) =      7.61605  eV     1   --> A''            
     e( 14 - 14) =      8.09842  eV     1   --> A''            
     e( 15 - 15) =      8.23618  eV     1   --> A'             
     e( 16 - 16) =      8.70623  eV     1   --> A'             
     e( 17 - 17) =     12.82630  eV     1   --> A''            
     e( 18 - 18) =     12.83409  eV     1   --> A'             
     e( 19 - 19) =     13.42602  eV     1   --> A''            
     e( 20 - 20) =     13.77740  eV     1   --> A'             
     e( 21 - 21) =     14.84694  eV     1   --> A''            
     e( 22 - 22) =     15.12226  eV     1   --> A'             
     e( 23 - 23) =     15.14386  eV     1   --> A''            
     e( 24 - 24) =     15.74367  eV     1   --> A'             
     e( 25 - 25) =     16.19655  eV     1   --> A'             
     e( 26 - 26) =     16.54073  eV     1   --> A''            
     e( 27 - 27) =     18.20786  eV     1   --> A''            
     e( 28 - 28) =     19.62396  eV     1   --> A'             
     e( 29 - 29) =     20.24175  eV     1   --> A''            
     e( 30 - 30) =     21.00691  eV     1   --> A'             
     e( 31 - 31) =     21.14214  eV     1   --> A''            
     e( 32 - 32) =     21.61662  eV     1   --> A'             
     e( 33 - 33) =     22.50611  eV     1   --> A'             
     e( 34 - 34) =     23.79356  eV     1   --> A'             
     e( 35 - 35) =     24.44911  eV     1   --> A''            
     e( 36 - 36) =     24.75234  eV     1   --> A'             
     e( 37 - 37) =     27.80207  eV     1   --> A'             
     e( 38 - 38) =     29.35742  eV     1   --> A'             
     e( 39 - 39) =     30.13433  eV     1   --> A''            
     e( 40 - 40) =     30.40428  eV     1   --> A'             

 **************************************************************************

 **************************************************************************

                    xk=(   0.48500,   0.03000,   0.00000  )

     Band symmetry, C_s (m)     point group:

     e(  1 -  1) =    -44.21734  eV     1   --> A'             
     e(  2 -  2) =    -44.20749  eV     1   --> A''            
     e(  3 -  3) =    -20.59565  eV     1   --> A'             
     e(  4 -  4) =    -20.57035  eV     1   --> A'             
     e(  5 -  5) =    -20.54642  eV     1   --> A''            
     e(  6 -  6) =    -20.49416  eV     1   --> A'             
     e(  7 -  7) =    -20.47716  eV     1   --> A''            
     e(  8 -  8) =    -20.46680  eV     1   --> A''            
     e(  9 -  9) =     -0.78520  eV     1   --> A'             
     e( 10 - 10) =     -0.65249  eV     1   --> A'             
     e( 11 - 11) =      6.56850  eV     1   --> A'             
     e( 12 - 12) =      7.24732  eV     1   --> A'             
     e( 13 - 13) =      7.61171  eV     1   --> A''            
     e( 14 - 14) =      8.10038  eV     1   --> A''            
     e( 15 - 15) =      8.24794  eV     1   --> A'             
     e( 16 - 16) =      8.71098  eV     1   --> A'             
     e( 17 - 18) =     12.82342  eV     2   --> A'             
     e( 17 - 18) =     12.82342  eV     2   --> A''            
     e( 19 - 19) =     13.43037  eV     1   --> A''            
     e( 20 - 20) =     13.78328  eV     1   --> A'             
     e( 21 - 21) =     14.84293  eV     1   --> A''            
     e( 22 - 22) =     15.12395  eV     1   --> A'             
     e( 23 - 23) =     15.14286  eV     1   --> A''            
     e( 24 - 24) =     15.74119  eV     1   --> A'             
     e( 25 - 25) =     16.19785  eV     1   --> A'             
     e( 26 - 26) =     16.54002  eV     1   --> A''            
     e( 27 - 27) =     18.21812  eV     1   --> A''            
     e( 28 - 28) =     19.61415  eV     1   --> A'             
     e( 29 - 29) =     20.23630  eV     1   --> A''            
     e( 30 - 30) =     20.98807  eV     1   --> A'             
     e( 31 - 31) =     21.14612  eV     1   --> A''            
     e( 32 - 32) =     21.60816  eV     1   --> A'             
     e( 33 - 33) =     22.51370  eV     1   --> A'             
     e( 34 - 34) =     23.79707  eV     1   --> A'             
     e( 35 - 35) =     24.46356  eV     1   --> A''            
     e( 36 - 36) =     24.76887  eV     1   --> A'             
     e( 37 - 37) =     27.79868  eV     1   --> A'             
     e( 38 - 38) =     29.37096  eV     1   --> A'             
     e( 39 - 39) =     30.12307  eV     1   --> A''            
     e( 40 - 40) =     30.41045  eV     1   --> A'             

 **************************************************************************

 **************************************************************************

                    xk=(   0.48416,   0.03166,   0.00000  )

     Band symmetry, C_s (m)     point group:

     e(  1 -  1) =    -44.21736  eV     1   --> A'             
     e(  2 -  2) =    -44.20752  eV     1   --> A''            
     e(  3 -  3) =    -20.59572  eV     1   --> A'             
     e(  4 -  4) =    -20.57041  eV     1   --> A'             
     e(  5 -  5) =    -20.54648  eV     1   --> A''            
     e(  6 -  6) =    -20.49379  eV     1   --> A'             
     e(  7 -  7) =    -20.47683  eV     1   --> A''            
     e(  8 -  8) =    -20.46683  eV     1   --> A''            
     e(  9 -  9) =     -0.78858  eV     1   --> A'             
     e( 10 - 10) =     -0.65326  eV     1   --> A'             
     e( 11 - 11) =      6.56758  eV     1   --> A'             
     e( 12 - 12) =      7.24894  eV     1   --> A'             
     e( 13 - 13) =      7.60736  eV     1   --> A''            
     e( 14 - 14) =      8.10236  eV     1   --> A''            
     e( 15 - 15) =      8.25993  eV     1   --> A'             
     e( 16 - 16) =      8.71582  eV     1   --> A'             
     e( 17 - 17) =     12.81263  eV     1   --> A'             
     e( 18 - 18) =     12.82044  eV     1   --> A''            
     e( 19 - 19) =     13.43482  eV     1   --> A''            
     e( 20 - 20) =     13.78936  eV     1   --> A'             
     e( 21 - 21) =     14.83892  eV     1   --> A''            
     e( 22 - 22) =     15.12557  eV     1   --> A'             
     e( 23 - 23) =     15.14186  eV     1   --> A''            
     e( 24 - 24) =     15.73867  eV     1   --> A'             
     e( 25 - 25) =     16.19924  eV     1   --> A'             
     e( 26 - 26) =     16.53928  eV     1   --> A''            
     e( 27 - 27) =     18.22852  eV     1   --> A''            
     e( 28 - 28) =     19.60413  eV     1   --> A'             
     e( 29 - 29) =     20.23066  eV     1   --> A''            
     e( 30 - 30) =     20.96852  eV     1   --> A'             
     e( 31 - 31) =     21.15010  eV     1   --> A''            
     e( 32 - 32) =     21.59982  eV     1   --> A'             
     e( 33 - 33) =     22.52151  eV     1   --> A'             
     e( 34 - 34) =     23.80107  eV     1   --> A'             
     e( 35 - 35) =     24.47825  eV     1   --> A''            
     e( 36 - 36) =     24.78588  eV     1   --> A'             
     e( 37 - 37) =     27.79520  eV     1   --> A'             
     e( 38 - 38) =     29.38449  eV     1   --> A'             
     e( 39 - 39) =     30.11144  eV     1   --> A''            
     e( 40 - 40) =     30.41641  eV     1   --> A'             

 **************************************************************************

 **************************************************************************

                    xk=(   0.48333,   0.03333,   0.00000  )

     Band symmetry, C_s (m)     point group:

     e(  1 -  1) =    -44.21739  eV     1   --> A'             
     e(  2 -  2) =    -44.20755  eV     1   --> A''            
     e(  3 -  3) =    -20.59579  eV     1   --> A'             
     e(  4 -  4) =    -20.57047  eV     1   --> A'             
     e(  5 -  5) =    -20.54653  eV     1   --> A''            
     e(  6 -  6) =    -20.49342  eV     1   --> A'             
     e(  7 -  7) =    -20.47649  eV     1   --> A''            
     e(  8 -  8) =    -20.46686  eV     1   --> A''            
     e(  9 -  9) =     -0.79196  eV     1   --> A'             
     e( 10 - 10) =     -0.65402  eV     1   --> A'             
     e( 11 - 11) =      6.56650  eV     1   --> A'             
     e( 12 - 12) =      7.25052  eV     1   --> A'             
     e( 13 - 13) =      7.60300  eV     1   --> A''            
     e( 14 - 14) =      8.10436  eV     1   --> A''            
     e( 15 - 15) =      8.27217  eV     1   --> A'             
     e( 16 - 16) =      8.72077  eV     1   --> A'             
     e( 17 - 17) =     12.80161  eV     1   --> A'             
     e( 18 - 18) =     12.81735  eV     1   --> A''            
     e( 19 - 19) =     13.43937  eV     1   --> A''            
     e( 20 - 20) =     13.79561  eV     1   --> A'             
     e( 21 - 21) =     14.83492  eV     1   --> A''            
     e( 22 - 22) =     15.12712  eV     1   --> A'             
     e( 23 - 23) =     15.14088  eV     1   --> A''            
     e( 24 - 24) =     15.73612  eV     1   --> A'             
     e( 25 - 25) =     16.20072  eV     1   --> A'             
     e( 26 - 26) =     16.53851  eV     1   --> A''            
     e( 27 - 27) =     18.23907  eV     1   --> A''            
     e( 28 - 28) =     19.59389  eV     1   --> A'             
     e( 29 - 29) =     20.22486  eV     1   --> A''            
     e( 30 - 30) =     20.94830  eV     1   --> A'             
     e( 31 - 31) =     21.15408  eV     1   --> A''            
     e( 32 - 32) =     21.59159  eV     1   --> A'             
     e( 33 - 33) =     22.52949  eV     1   --> A'             
     e( 34 - 34) =     23.80560  eV     1   --> A'             
     e( 35 - 35) =     24.49322  eV     1   --> A''            
     e( 36 - 36) =     24.80333  eV     1   --> A'             
     e( 37 - 37) =     27.79161  eV     1   --> A'             
     e( 38 - 38) =     29.39802  eV     1   --> A'             
     e( 39 - 39) =     30.09944  eV     1   --> A''            
     e( 40 - 40) =     30.41565  eV     1   --> A''            

 **************************************************************************

 **************************************************************************

                    xk=(   0.48250,   0.03500,   0.00000  )

     Band symmetry, C_s (m)     point group:

     e(  1 -  1) =    -44.21742  eV     1   --> A'             
     e(  2 -  2) =    -44.20757  eV     1   --> A''            
     e(  3 -  3) =    -20.59586  eV     1   --> A'             
     e(  4 -  4) =    -20.57053  eV     1   --> A'             
     e(  5 -  5) =    -20.54660  eV     1   --> A''            
     e(  6 -  6) =    -20.49304  eV     1   --> A'             
     e(  7 -  7) =    -20.47615  eV     1   --> A''            
     e(  8 -  8) =    -20.46689  eV     1   --> A''            
     e(  9 -  9) =     -0.79534  eV     1   --> A'             
     e( 10 - 10) =     -0.65477  eV     1   --> A'             
     e( 11 - 11) =      6.56526  eV     1   --> A'             
     e( 12 - 12) =      7.25208  eV     1   --> A'             
     e( 13 - 13) =      7.59863  eV     1   --> A''            
     e( 14 - 14) =      8.10639  eV     1   --> A''            
     e( 15 - 15) =      8.28463  eV     1   --> A'             
     e( 16 - 16) =      8.72583  eV     1   --> A'             
     e( 17 - 17) =     12.79041  eV     1   --> A'             
     e( 18 - 18) =     12.81417  eV     1   --> A''            
     e( 19 - 19) =     13.44401  eV     1   --> A''            
     e( 20 - 20) =     13.80206  eV     1   --> A'             
     e( 21 - 21) =     14.83092  eV     1   --> A''            
     e( 22 - 22) =     15.12860  eV     1   --> A'             
     e( 23 - 23) =     15.13991  eV     1   --> A''            
     e( 24 - 24) =     15.73352  eV     1   --> A'             
     e( 25 - 25) =     16.20230  eV     1   --> A'             
     e( 26 - 26) =     16.53771  eV     1   --> A''            
     e( 27 - 27) =     18.24975  eV     1   --> A''            
     e( 28 - 28) =     19.58344  eV     1   --> A'             
     e( 29 - 29) =     20.21889  eV     1   --> A''            
     e( 30 - 30) =     20.92745  eV     1   --> A'             
     e( 31 - 31) =     21.15806  eV     1   --> A''            
     e( 32 - 32) =     21.58349  eV     1   --> A'             
     e( 33 - 33) =     22.53764  eV     1   --> A'             
     e( 34 - 34) =     23.81067  eV     1   --> A'             
     e( 35 - 35) =     24.50845  eV     1   --> A''            
     e( 36 - 36) =     24.82119  eV     1   --> A'             
     e( 37 - 37) =     27.78791  eV     1   --> A'             
     e( 38 - 38) =     29.41153  eV     1   --> A'             
     e( 39 - 39) =     30.08708  eV     1   --> A''            
     e( 40 - 40) =     30.39832  eV     1   --> A''            

 **************************************************************************

 **************************************************************************

                    xk=(   0.48166,   0.03666,   0.00000  )

     Band symmetry, C_s (m)     point group:

     e(  1 -  1) =    -44.21745  eV     1   --> A'             
     e(  2 -  2) =    -44.20760  eV     1   --> A''            
     e(  3 -  3) =    -20.59593  eV     1   --> A'             
     e(  4 -  4) =    -20.57060  eV     1   --> A'             
     e(  5 -  5) =    -20.54666  eV     1   --> A''            
     e(  6 -  6) =    -20.49266  eV     1   --> A'             
     e(  7 -  7) =    -20.47580  eV     1   --> A''            
     e(  8 -  8) =    -20.46692  eV     1   --> A''            
     e(  9 -  9) =     -0.79873  eV     1   --> A'             
     e( 10 - 10) =     -0.65551  eV     1   --> A'             
     e( 11 - 11) =      6.56388  eV     1   --> A'             
     e( 12 - 12) =      7.25360  eV     1   --> A'             
     e( 13 - 13) =      7.59425  eV     1   --> A''            
     e( 14 - 14) =      8.10844  eV     1   --> A''            
     e( 15 - 15) =      8.29731  eV     1   --> A'             
     e( 16 - 16) =      8.73100  eV     1   --> A'             
     e( 17 - 17) =     12.77903  eV     1   --> A'             
     e( 18 - 18) =     12.81089  eV     1   --> A''            
     e( 19 - 19) =     13.44874  eV     1   --> A''            
     e( 20 - 20) =     13.80868  eV     1   --> A'             
     e( 21 - 21) =     14.82694  eV     1   --> A''            
     e( 22 - 22) =     15.13002  eV     1   --> A'             
     e( 23 - 23) =     15.13895  eV     1   --> A''            
     e( 24 - 24) =     15.73088  eV     1   --> A'             
     e( 25 - 25) =     16.20399  eV     1   --> A'             
     e( 26 - 26) =     16.53688  eV     1   --> A''            
     e( 27 - 27) =     18.26058  eV     1   --> A''            
     e( 28 - 28) =     19.57280  eV     1   --> A'             
     e( 29 - 29) =     20.21277  eV     1   --> A''            
     e( 30 - 30) =     20.90601  eV     1   --> A'             
     e( 31 - 31) =     21.16203  eV     1   --> A''            
     e( 32 - 32) =     21.57550  eV     1   --> A'             
     e( 33 - 33) =     22.54593  eV     1   --> A'             
     e( 34 - 34) =     23.81629  eV     1   --> A'             
     e( 35 - 35) =     24.52393  eV     1   --> A''            
     e( 36 - 36) =     24.83943  eV     1   --> A'             
     e( 37 - 37) =     27.78411  eV     1   --> A'             
     e( 38 - 38) =     29.42502  eV     1   --> A'             
     e( 39 - 39) =     30.07436  eV     1   --> A''            
     e( 40 - 40) =     30.38056  eV     1   --> A''            

 **************************************************************************

 **************************************************************************

                    xk=(   0.48083,   0.03833,   0.00000  )

     Band symmetry, C_s (m)     point group:

     e(  1 -  1) =    -44.21747  eV     1   --> A'             
     e(  2 -  2) =    -44.20762  eV     1   --> A''            
     e(  3 -  3) =    -20.59600  eV     1   --> A'             
     e(  4 -  4) =    -20.57067  eV     1   --> A'             
     e(  5 -  5) =    -20.54673  eV     1   --> A''            
     e(  6 -  6) =    -20.49227  eV     1   --> A'             
     e(  7 -  7) =    -20.47546  eV     1   --> A''            
     e(  8 -  8) =    -20.46695  eV     1   --> A''            
     e(  9 -  9) =     -0.80211  eV     1   --> A'             
     e( 10 - 10) =     -0.65624  eV     1   --> A'             
     e( 11 - 11) =      6.56235  eV     1   --> A'             
     e( 12 - 12) =      7.25509  eV     1   --> A'             
     e( 13 - 13) =      7.58986  eV     1   --> A''            
     e( 14 - 14) =      8.11051  eV     1   --> A''            
     e( 15 - 15) =      8.31019  eV     1   --> A'             
     e( 16 - 16) =      8.73628  eV     1   --> A'             
     e( 17 - 17) =     12.76750  eV     1   --> A'             
     e( 18 - 18) =     12.80753  eV     1   --> A''            
     e( 19 - 19) =     13.45354  eV     1   --> A''            
     e( 20 - 20) =     13.81546  eV     1   --> A'             
     e( 21 - 21) =     14.82296  eV     1   --> A''            
     e( 22 - 22) =     15.13136  eV     1   --> A'             
     e( 23 - 23) =     15.13801  eV     1   --> A''            
     e( 24 - 24) =     15.72819  eV     1   --> A'             
     e( 25 - 25) =     16.20578  eV     1   --> A'             
     e( 26 - 26) =     16.53601  eV     1   --> A''            
     e( 27 - 27) =     18.27153  eV     1   --> A''            
     e( 28 - 28) =     19.56195  eV     1   --> A'             
     e( 29 - 29) =     20.20651  eV     1   --> A''            
     e( 30 - 30) =     20.88401  eV     1   --> A'             
     e( 31 - 31) =     21.16598  eV     1   --> A''            
     e( 32 - 32) =     21.56761  eV     1   --> A'             
     e( 33 - 33) =     22.55432  eV     1   --> A'             
     e( 34 - 34) =     23.82248  eV     1   --> A'             
     e( 35 - 35) =     24.53967  eV     1   --> A''            
     e( 36 - 36) =     24.85803  eV     1   --> A'             
     e( 37 - 37) =     27.78019  eV     1   --> A'             
     e( 38 - 38) =     29.43849  eV     1   --> A'             
     e( 39 - 39) =     30.06128  eV     1   --> A''            
     e( 40 - 40) =     30.36240  eV     1   --> A''            

 **************************************************************************

 **************************************************************************

                    xk=(   0.48000,   0.04000,   0.00000  )

     Band symmetry, C_s (m)     point group:

     e(  1 -  1) =    -44.21750  eV     1   --> A'             
     e(  2 -  2) =    -44.20765  eV     1   --> A''            
     e(  3 -  3) =    -20.59607  eV     1   --> A'             
     e(  4 -  4) =    -20.57075  eV     1   --> A'             
     e(  5 -  5) =    -20.54680  eV     1   --> A''            
     e(  6 -  6) =    -20.49188  eV     1   --> A'             
     e(  7 -  7) =    -20.47511  eV     1   --> A''            
     e(  8 -  8) =    -20.46697  eV     1   --> A''            
     e(  9 -  9) =     -0.80549  eV     1   --> A'             
     e( 10 - 10) =     -0.65696  eV     1   --> A'             
     e( 11 - 11) =      6.56068  eV     1   --> A'             
     e( 12 - 12) =      7.25655  eV     1   --> A'             
     e( 13 - 13) =      7.58547  eV     1   --> A''            
     e( 14 - 14) =      8.11260  eV     1   --> A''            
     e( 15 - 15) =      8.32326  eV     1   --> A'             
     e( 16 - 16) =      8.74168  eV     1   --> A'             
     e( 17 - 17) =     12.75580  eV     1   --> A'             
     e( 18 - 18) =     12.80408  eV     1   --> A''            
     e( 19 - 19) =     13.45842  eV     1   --> A''            
     e( 20 - 20) =     13.82239  eV     1   --> A'             
     e( 21 - 21) =     14.81901  eV     1   --> A''            
     e( 22 - 22) =     15.13263  eV     1   --> A'             
     e( 23 - 23) =     15.13707  eV     1   --> A''            
     e( 24 - 24) =     15.72545  eV     1   --> A'             
     e( 25 - 25) =     16.20768  eV     1   --> A'             
     e( 26 - 26) =     16.53511  eV     1   --> A''            
     e( 27 - 27) =     18.28262  eV     1   --> A''            
     e( 28 - 28) =     19.55091  eV     1   --> A'             
     e( 29 - 29) =     20.20011  eV     1   --> A''            
     e( 30 - 30) =     20.86151  eV     1   --> A'             
     e( 31 - 31) =     21.16992  eV     1   --> A''            
     e( 32 - 32) =     21.55980  eV     1   --> A'             
     e( 33 - 33) =     22.56282  eV     1   --> A'             
     e( 34 - 34) =     23.82924  eV     1   --> A'             
     e( 35 - 35) =     24.55565  eV     1   --> A''            
     e( 36 - 36) =     24.87696  eV     1   --> A'             
     e( 37 - 37) =     27.77617  eV     1   --> A'             
     e( 38 - 38) =     29.45192  eV     1   --> A'             
     e( 39 - 39) =     30.04782  eV     1   --> A''            
     e( 40 - 40) =     30.34383  eV     1   --> A''            

 **************************************************************************

 **************************************************************************

                    xk=(   0.47916,   0.04166,   0.00000  )

     Band symmetry, C_s (m)     point group:

     e(  1 -  1) =    -44.21752  eV     1   --> A'             
     e(  2 -  2) =    -44.20767  eV     1   --> A''            
     e(  3 -  3) =    -20.59614  eV     1   --> A'             
     e(  4 -  4) =    -20.57083  eV     1   --> A'             
     e(  5 -  5) =    -20.54688  eV     1   --> A''            
     e(  6 -  6) =    -20.49149  eV     1   --> A'             
     e(  7 -  7) =    -20.47475  eV     1   --> A''            
     e(  8 -  8) =    -20.46700  eV     1   --> A''            
     e(  9 -  9) =     -0.80887  eV     1   --> A'             
     e( 10 - 10) =     -0.65767  eV     1   --> A'             
     e( 11 - 11) =      6.55887  eV     1   --> A'             
     e( 12 - 12) =      7.25798  eV     1   --> A'             
     e( 13 - 13) =      7.58108  eV     1   --> A''            
     e( 14 - 14) =      8.11470  eV     1   --> A''            
     e( 15 - 15) =      8.33650  eV     1   --> A'             
     e( 16 - 16) =      8.74720  eV     1   --> A'             
     e( 17 - 17) =     12.74395  eV     1   --> A'             
     e( 18 - 18) =     12.80055  eV     1   --> A''            
     e( 19 - 19) =     13.46337  eV     1   --> A''            
     e( 20 - 20) =     13.82947  eV     1   --> A'             
     e( 21 - 21) =     14.81507  eV     1   --> A''            
     e( 22 - 22) =     15.13382  eV     1   --> A'             
     e( 23 - 23) =     15.13614  eV     1   --> A''            
     e( 24 - 24) =     15.72267  eV     1   --> A'             
     e( 25 - 25) =     16.20969  eV     1   --> A'             
     e( 26 - 26) =     16.53418  eV     1   --> A''            
     e( 27 - 27) =     18.29383  eV     1   --> A''            
     e( 28 - 28) =     19.53968  eV     1   --> A'             
     e( 29 - 29) =     20.19359  eV     1   --> A''            
     e( 30 - 30) =     20.83853  eV     1   --> A'             
     e( 31 - 31) =     21.17382  eV     1   --> A''            
     e( 32 - 32) =     21.55207  eV     1   --> A'             
     e( 33 - 33) =     22.57138  eV     1   --> A'             
     e( 34 - 34) =     23.83657  eV     1   --> A'             
     e( 35 - 35) =     24.57188  eV     1   --> A''            
     e( 36 - 36) =     24.89621  eV     1   --> A'             
     e( 37 - 37) =     27.77204  eV     1   --> A'             
     e( 38 - 38) =     29.46532  eV     1   --> A'             
     e( 39 - 39) =     30.03403  eV     1   --> A''            
     e( 40 - 40) =     30.32490  eV     1   --> A''            

 **************************************************************************

 **************************************************************************

                    xk=(   0.47833,   0.04333,   0.00000  )

     Band symmetry, C_s (m)     point group:

     e(  1 -  1) =    -44.21755  eV     1   --> A'             
     e(  2 -  2) =    -44.20770  eV     1   --> A''            
     e(  3 -  3) =    -20.59621  eV     1   --> A'             
     e(  4 -  4) =    -20.57091  eV     1   --> A'             
     e(  5 -  5) =    -20.54696  eV     1   --> A''            
     e(  6 -  6) =    -20.49109  eV     1   --> A'             
     e(  7 -  7) =    -20.47440  eV     1   --> A''            
     e(  8 -  8) =    -20.46702  eV     1   --> A''            
     e(  9 -  9) =     -0.81225  eV     1   --> A'             
     e( 10 - 10) =     -0.65837  eV     1   --> A'             
     e( 11 - 11) =      6.55694  eV     1   --> A'             
     e( 12 - 12) =      7.25938  eV     1   --> A'             
     e( 13 - 13) =      7.57669  eV     1   --> A''            
     e( 14 - 14) =      8.11682  eV     1   --> A''            
     e( 15 - 15) =      8.34991  eV     1   --> A'             
     e( 16 - 16) =      8.75285  eV     1   --> A'             
     e( 17 - 17) =     12.73197  eV     1   --> A'             
     e( 18 - 18) =     12.79695  eV     1   --> A''            
     e( 19 - 19) =     13.46838  eV     1   --> A''            
     e( 20 - 20) =     13.83669  eV     1   --> A'             
     e( 21 - 21) =     14.81115  eV     1   --> A''            
     e( 22 - 22) =     15.13495  eV     1   --> A'             
     e( 23 - 23) =     15.13523  eV     1   --> A''            
     e( 24 - 24) =     15.71985  eV     1   --> A'             
     e( 25 - 25) =     16.21181  eV     1   --> A'             
     e( 26 - 26) =     16.53322  eV     1   --> A''            
     e( 27 - 27) =     18.30517  eV     1   --> A''            
     e( 28 - 28) =     19.52827  eV     1   --> A'             
     e( 29 - 29) =     20.18694  eV     1   --> A''            
     e( 30 - 30) =     20.81512  eV     1   --> A'             
     e( 31 - 31) =     21.17770  eV     1   --> A''            
     e( 32 - 32) =     21.54440  eV     1   --> A'             
     e( 33 - 33) =     22.58002  eV     1   --> A'             
     e( 34 - 34) =     23.84450  eV     1   --> A'             
     e( 35 - 35) =     24.58836  eV     1   --> A''            
     e( 36 - 36) =     24.91575  eV     1   --> A'             
     e( 37 - 37) =     27.76780  eV     1   --> A'             
     e( 38 - 38) =     29.47868  eV     1   --> A'             
     e( 39 - 39) =     30.01988  eV     1   --> A''            
     e( 40 - 40) =     30.30562  eV     1   --> A''            

 **************************************************************************

 **************************************************************************

                    xk=(   0.47750,   0.04500,   0.00000  )

     Band symmetry, C_s (m)     point group:

     e(  1 -  1) =    -44.21758  eV     1   --> A'             
     e(  2 -  2) =    -44.20772  eV     1   --> A''            
[...]

                    xk=(   0.33830,   0.32330,   0.50000  )

     Band symmetry, C_1 (1)     point group:

     e(  1 -  1) =    -44.21825  eV     1   --> A              
     e(  2 -  2) =    -44.20836  eV     1   --> A              
     e(  3 -  3) =    -20.59868  eV     1   --> A              
     e(  4 -  4) =    -20.58062  eV     1   --> A              
     e(  5 -  5) =    -20.55651  eV     1   --> A              
     e(  6 -  6) =    -20.47211  eV     1   --> A              
     e(  7 -  7) =    -20.46823  eV     1   --> A              
     e(  8 -  8) =    -20.45668  eV     1   --> A              
     e(  9 -  9) =     -0.91482  eV     1   --> A              
     e( 10 - 10) =     -0.65615  eV     1   --> A              
     e( 11 - 11) =      6.28620  eV     1   --> A              
     e( 12 - 12) =      7.24740  eV     1   --> A              
     e( 13 - 13) =      7.43750  eV     1   --> A              
     e( 14 - 14) =      8.20917  eV     1   --> A              
     e( 15 - 15) =      8.85121  eV     1   --> A              
     e( 16 - 16) =      9.33376  eV     1   --> A              
     e( 17 - 17) =     12.05114  eV     1   --> A              
     e( 18 - 18) =     12.56310  eV     1   --> A              
     e( 19 - 19) =     13.70043  eV     1   --> A              
     e( 20 - 20) =     14.31827  eV     1   --> A              
     e( 21 - 21) =     14.74917  eV     1   --> A              
     e( 22 - 22) =     15.10727  eV     1   --> A              
     e( 23 - 23) =     15.10865  eV     1   --> A              
     e( 24 - 24) =     15.55350  eV     1   --> A              
     e( 25 - 25) =     16.47242  eV     1   --> A              
     e( 26 - 26) =     16.50859  eV     1   --> A              
     e( 27 - 27) =     18.73593  eV     1   --> A              
     e( 28 - 28) =     18.85834  eV     1   --> A              
     e( 29 - 29) =     19.67371  eV     1   --> A              
     e( 30 - 30) =     19.73333  eV     1   --> A              
     e( 31 - 31) =     21.07775  eV     1   --> A              
     e( 32 - 32) =     21.20021  eV     1   --> A              
     e( 33 - 33) =     23.09782  eV     1   --> A              
     e( 34 - 34) =     24.98414  eV     1   --> A              
     e( 35 - 35) =     25.59589  eV     1   --> A              
     e( 36 - 36) =     26.08522  eV     1   --> A              
     e( 37 - 37) =     27.48237  eV     1   --> A              
     e( 38 - 38) =     28.96524  eV     1   --> A              
     e( 39 - 39) =     29.29034  eV     1   --> A              
     e( 40 - 40) =     29.71948  eV     1   --> A              

 **************************************************************************

 **************************************************************************

                    xk=(   0.33747,   0.32497,   0.50000  )

     Band symmetry, C_1 (1)     point group:

     e(  1 -  1) =    -44.21822  eV     1   --> A              
     e(  2 -  2) =    -44.20834  eV     1   --> A              
     e(  3 -  3) =    -20.59861  eV     1   --> A              
     e(  4 -  4) =    -20.58052  eV     1   --> A              
     e(  5 -  5) =    -20.55641  eV     1   --> A              
     e(  6 -  6) =    -20.47251  eV     1   --> A              
     e(  7 -  7) =    -20.46820  eV     1   --> A              
     e(  8 -  8) =    -20.45704  eV     1   --> A              
     e(  9 -  9) =     -0.91200  eV     1   --> A              
     e( 10 - 10) =     -0.65537  eV     1   --> A              
     e( 11 - 11) =      6.28852  eV     1   --> A              
     e( 12 - 12) =      7.24655  eV     1   --> A              
     e( 13 - 13) =      7.44132  eV     1   --> A              
     e( 14 - 14) =      8.20720  eV     1   --> A              
     e( 15 - 15) =      8.84529  eV     1   --> A              
     e( 16 - 16) =      9.31384  eV     1   --> A              
     e( 17 - 17) =     12.06656  eV     1   --> A              
     e( 18 - 18) =     12.56624  eV     1   --> A              
     e( 19 - 19) =     13.69693  eV     1   --> A              
     e( 20 - 20) =     14.30945  eV     1   --> A              
     e( 21 - 21) =     14.75044  eV     1   --> A              
     e( 22 - 22) =     15.10819  eV     1   --> A              
     e( 23 - 23) =     15.11089  eV     1   --> A              
     e( 24 - 24) =     15.55823  eV     1   --> A              
     e( 25 - 25) =     16.46409  eV     1   --> A              
     e( 26 - 26) =     16.51111  eV     1   --> A              
     e( 27 - 27) =     18.75459  eV     1   --> A              
     e( 28 - 28) =     18.84574  eV     1   --> A              
     e( 29 - 29) =     19.69170  eV     1   --> A              
     e( 30 - 30) =     19.73718  eV     1   --> A              
     e( 31 - 31) =     21.08636  eV     1   --> A              
     e( 32 - 32) =     21.20039  eV     1   --> A              
     e( 33 - 33) =     23.08899  eV     1   --> A              
     e( 34 - 34) =     24.96036  eV     1   --> A              
     e( 35 - 35) =     25.56972  eV     1   --> A              
     e( 36 - 36) =     26.06659  eV     1   --> A              
     e( 37 - 37) =     27.49246  eV     1   --> A              
     e( 38 - 38) =     28.99179  eV     1   --> A              
     e( 39 - 39) =     29.30928  eV     1   --> A              
     e( 40 - 40) =     29.74212  eV     1   --> A              

 **************************************************************************

 **************************************************************************

                    xk=(   0.33663,   0.32663,   0.50000  )

     Band symmetry, C_1 (1)     point group:

     e(  1 -  1) =    -44.21820  eV     1   --> A              
     e(  2 -  2) =    -44.20832  eV     1   --> A              
     e(  3 -  3) =    -20.59853  eV     1   --> A              
     e(  4 -  4) =    -20.58042  eV     1   --> A              
     e(  5 -  5) =    -20.55631  eV     1   --> A              
     e(  6 -  6) =    -20.47291  eV     1   --> A              
     e(  7 -  7) =    -20.46818  eV     1   --> A              
     e(  8 -  8) =    -20.45741  eV     1   --> A              
     e(  9 -  9) =     -0.90914  eV     1   --> A              
     e( 10 - 10) =     -0.65459  eV     1   --> A              
     e( 11 - 11) =      6.29089  eV     1   --> A              
     e( 12 - 12) =      7.24569  eV     1   --> A              
     e( 13 - 13) =      7.44519  eV     1   --> A              
     e( 14 - 14) =      8.20521  eV     1   --> A              
     e( 15 - 15) =      8.83926  eV     1   --> A              
     e( 16 - 16) =      9.29397  eV     1   --> A              
     e( 17 - 17) =     12.08198  eV     1   --> A              
     e( 18 - 18) =     12.56942  eV     1   --> A              
     e( 19 - 19) =     13.69335  eV     1   --> A              
     e( 20 - 20) =     14.30063  eV     1   --> A              
     e( 21 - 21) =     14.75181  eV     1   --> A              
     e( 22 - 22) =     15.10909  eV     1   --> A              
     e( 23 - 23) =     15.11302  eV     1   --> A              
     e( 24 - 24) =     15.56298  eV     1   --> A              
     e( 25 - 25) =     16.45588  eV     1   --> A              
     e( 26 - 26) =     16.51360  eV     1   --> A              
     e( 27 - 27) =     18.77312  eV     1   --> A              
     e( 28 - 28) =     18.83303  eV     1   --> A              
     e( 29 - 29) =     19.70993  eV     1   --> A              
     e( 30 - 30) =     19.74133  eV     1   --> A              
     e( 31 - 31) =     21.09509  eV     1   --> A              
     e( 32 - 32) =     21.20051  eV     1   --> A              
     e( 33 - 33) =     23.08012  eV     1   --> A              
     e( 34 - 34) =     24.93667  eV     1   --> A              
     e( 35 - 35) =     25.54362  eV     1   --> A              
     e( 36 - 36) =     26.04771  eV     1   --> A              
     e( 37 - 37) =     27.50238  eV     1   --> A              
     e( 38 - 38) =     29.01829  eV     1   --> A              
     e( 39 - 39) =     29.32841  eV     1   --> A              
     e( 40 - 40) =     29.76465  eV     1   --> A              

 **************************************************************************

 **************************************************************************

                    xk=(   0.33580,   0.32830,   0.50000  )

     Band symmetry, C_1 (1)     point group:

     e(  1 -  1) =    -44.21817  eV     1   --> A              
     e(  2 -  2) =    -44.20830  eV     1   --> A              
     e(  3 -  3) =    -20.59846  eV     1   --> A              
     e(  4 -  4) =    -20.58032  eV     1   --> A              
     e(  5 -  5) =    -20.55621  eV     1   --> A              
     e(  6 -  6) =    -20.47332  eV     1   --> A              
     e(  7 -  7) =    -20.46815  eV     1   --> A              
     e(  8 -  8) =    -20.45778  eV     1   --> A              
     e(  9 -  9) =     -0.90626  eV     1   --> A              
     e( 10 - 10) =     -0.65381  eV     1   --> A              
     e( 11 - 11) =      6.29330  eV     1   --> A              
     e( 12 - 12) =      7.24482  eV     1   --> A              
     e( 13 - 13) =      7.44910  eV     1   --> A              
     e( 14 - 14) =      8.20319  eV     1   --> A              
     e( 15 - 15) =      8.83309  eV     1   --> A              
     e( 16 - 16) =      9.27418  eV     1   --> A              
     e( 17 - 17) =     12.09740  eV     1   --> A              
     e( 18 - 18) =     12.57265  eV     1   --> A              
     e( 19 - 19) =     13.68969  eV     1   --> A              
     e( 20 - 20) =     14.29179  eV     1   --> A              
     e( 21 - 21) =     14.75327  eV     1   --> A              
     e( 22 - 22) =     15.10998  eV     1   --> A              
     e( 23 - 23) =     15.11504  eV     1   --> A              
     e( 24 - 24) =     15.56774  eV     1   --> A              
     e( 25 - 25) =     16.44779  eV     1   --> A              
     e( 26 - 26) =     16.51606  eV     1   --> A              
     e( 27 - 27) =     18.79121  eV     1   --> A              
     e( 28 - 28) =     18.82055  eV     1   --> A              
     e( 29 - 29) =     19.72822  eV     1   --> A              
     e( 30 - 30) =     19.74598  eV     1   --> A              
     e( 31 - 31) =     21.10393  eV     1   --> A              
     e( 32 - 32) =     21.20056  eV     1   --> A              
     e( 33 - 33) =     23.07120  eV     1   --> A              
     e( 34 - 34) =     24.91305  eV     1   --> A              
     e( 35 - 35) =     25.51758  eV     1   --> A              
     e( 36 - 36) =     26.02861  eV     1   --> A              
     e( 37 - 37) =     27.51212  eV     1   --> A              
     e( 38 - 38) =     29.04472  eV     1   --> A              
     e( 39 - 39) =     29.34773  eV     1   --> A              
     e( 40 - 40) =     29.78642  eV     1   --> A              

 **************************************************************************

 **************************************************************************

                    xk=(   0.33497,   0.32997,   0.50000  )

     Band symmetry, C_1 (1)     point group:

     e(  1 -  1) =    -44.21815  eV     1   --> A              
     e(  2 -  2) =    -44.20827  eV     1   --> A              
     e(  3 -  3) =    -20.59839  eV     1   --> A              
     e(  4 -  4) =    -20.58022  eV     1   --> A              
     e(  5 -  5) =    -20.55610  eV     1   --> A              
     e(  6 -  6) =    -20.47373  eV     1   --> A              
     e(  7 -  7) =    -20.46812  eV     1   --> A              
     e(  8 -  8) =    -20.45816  eV     1   --> A              
     e(  9 -  9) =     -0.90333  eV     1   --> A              
     e( 10 - 10) =     -0.65302  eV     1   --> A              
     e( 11 - 11) =      6.29574  eV     1   --> A              
     e( 12 - 12) =      7.24394  eV     1   --> A              
     e( 13 - 13) =      7.45305  eV     1   --> A              
     e( 14 - 14) =      8.20115  eV     1   --> A              
     e( 15 - 15) =      8.82679  eV     1   --> A              
     e( 16 - 16) =      9.25446  eV     1   --> A              
     e( 17 - 17) =     12.11280  eV     1   --> A              
     e( 18 - 18) =     12.57593  eV     1   --> A              
     e( 19 - 19) =     13.68595  eV     1   --> A              
     e( 20 - 20) =     14.28295  eV     1   --> A              
     e( 21 - 21) =     14.75484  eV     1   --> A              
     e( 22 - 22) =     15.11087  eV     1   --> A              
     e( 23 - 23) =     15.11695  eV     1   --> A              
     e( 24 - 24) =     15.57252  eV     1   --> A              
     e( 25 - 25) =     16.43982  eV     1   --> A              
     e( 26 - 26) =     16.51849  eV     1   --> A              
     e( 27 - 27) =     18.80252  eV     1   --> A              
     e( 28 - 28) =     18.81462  eV     1   --> A              
     e( 29 - 29) =     19.74481  eV     1   --> A              
     e( 30 - 30) =     19.75287  eV     1   --> A              
     e( 31 - 31) =     21.11288  eV     1   --> A              
     e( 32 - 32) =     21.20053  eV     1   --> A              
     e( 33 - 33) =     23.06225  eV     1   --> A              
     e( 34 - 34) =     24.88952  eV     1   --> A              
     e( 35 - 35) =     25.49161  eV     1   --> A              
     e( 36 - 36) =     26.00928  eV     1   --> A              
     e( 37 - 37) =     27.52168  eV     1   --> A              
     e( 38 - 38) =     29.07109  eV     1   --> A              
     e( 39 - 39) =     29.36723  eV     1   --> A              
     e( 40 - 40) =     29.80402  eV     1   --> A              

 **************************************************************************

 **************************************************************************

                    xk=(   0.33413,   0.33163,   0.50000  )

     Band symmetry, C_1 (1)     point group:

     e(  1 -  1) =    -44.21812  eV     1   --> A              
     e(  2 -  2) =    -44.20825  eV     1   --> A              
     e(  3 -  3) =    -20.59831  eV     1   --> A              
     e(  4 -  4) =    -20.58012  eV     1   --> A              
     e(  5 -  5) =    -20.55600  eV     1   --> A              
     e(  6 -  6) =    -20.47414  eV     1   --> A              
     e(  7 -  7) =    -20.46809  eV     1   --> A              
     e(  8 -  8) =    -20.45853  eV     1   --> A              
     e(  9 -  9) =     -0.90038  eV     1   --> A              
     e( 10 - 10) =     -0.65223  eV     1   --> A              
     e( 11 - 11) =      6.29823  eV     1   --> A              
     e( 12 - 12) =      7.24305  eV     1   --> A              
     e( 13 - 13) =      7.45705  eV     1   --> A              
     e( 14 - 14) =      8.19910  eV     1   --> A              
     e( 15 - 15) =      8.82035  eV     1   --> A              
     e( 16 - 16) =      9.23485  eV     1   --> A              
     e( 17 - 17) =     12.12820  eV     1   --> A              
     e( 18 - 18) =     12.57926  eV     1   --> A              
     e( 19 - 19) =     13.68212  eV     1   --> A              
     e( 20 - 20) =     14.27409  eV     1   --> A              
     e( 21 - 21) =     14.75650  eV     1   --> A              
     e( 22 - 22) =     15.11176  eV     1   --> A              
     e( 23 - 23) =     15.11874  eV     1   --> A              
     e( 24 - 24) =     15.57732  eV     1   --> A              
     e( 25 - 25) =     16.43197  eV     1   --> A              
     e( 26 - 26) =     16.52088  eV     1   --> A              
     e( 27 - 27) =     18.79200  eV     1   --> A              
     e( 28 - 28) =     18.83033  eV     1   --> A              
     e( 29 - 29) =     19.75305  eV     1   --> A              
     e( 30 - 30) =     19.76864  eV     1   --> A              
     e( 31 - 31) =     21.12193  eV     1   --> A              
     e( 32 - 32) =     21.20044  eV     1   --> A              
     e( 33 - 33) =     23.05326  eV     1   --> A              
     e( 34 - 34) =     24.86607  eV     1   --> A              
     e( 35 - 35) =     25.46570  eV     1   --> A              
     e( 36 - 36) =     25.98974  eV     1   --> A              
     e( 37 - 37) =     27.53107  eV     1   --> A              
     e( 38 - 38) =     29.09738  eV     1   --> A              
     e( 39 - 39) =     29.38692  eV     1   --> A              
     e( 40 - 40) =     29.80725  eV     1   --> A              

 **************************************************************************

 **************************************************************************

                    xk=(   0.33330,   0.33330,   0.50000  )

     Band symmetry, C_1 (1)     point group:

     e(  1 -  1) =    -44.21810  eV     1   --> A              
     e(  2 -  2) =    -44.20822  eV     1   --> A              
     e(  3 -  3) =    -20.59823  eV     1   --> A              
     e(  4 -  4) =    -20.58001  eV     1   --> A              
     e(  5 -  5) =    -20.55589  eV     1   --> A              
     e(  6 -  6) =    -20.47457  eV     1   --> A              
     e(  7 -  7) =    -20.46806  eV     1   --> A              
     e(  8 -  8) =    -20.45891  eV     1   --> A              
     e(  9 -  9) =     -0.89740  eV     1   --> A              
     e( 10 - 10) =     -0.65143  eV     1   --> A              
     e( 11 - 11) =      6.30076  eV     1   --> A              
     e( 12 - 12) =      7.24215  eV     1   --> A              
     e( 13 - 13) =      7.46109  eV     1   --> A              
     e( 14 - 14) =      8.19702  eV     1   --> A              
     e( 15 - 15) =      8.81376  eV     1   --> A              
     e( 16 - 16) =      9.21534  eV     1   --> A              
     e( 17 - 17) =     12.14360  eV     1   --> A              
     e( 18 - 18) =     12.58264  eV     1   --> A              
     e( 19 - 19) =     13.67822  eV     1   --> A              
     e( 20 - 20) =     14.26523  eV     1   --> A              
     e( 21 - 21) =     14.75827  eV     1   --> A              
     e( 22 - 22) =     15.11264  eV     1   --> A              
     e( 23 - 23) =     15.12041  eV     1   --> A              
     e( 24 - 24) =     15.58212  eV     1   --> A              
     e( 25 - 25) =     16.42425  eV     1   --> A              
     e( 26 - 26) =     16.52324  eV     1   --> A              
     e( 27 - 27) =     18.77883  eV     1   --> A              
     e( 28 - 28) =     18.84847  eV     1   --> A              
     e( 29 - 29) =     19.75846  eV     1   --> A              
     e( 30 - 30) =     19.78777  eV     1   --> A              
     e( 31 - 31) =     21.13110  eV     1   --> A              
     e( 32 - 32) =     21.20030  eV     1   --> A              
     e( 33 - 33) =     23.04425  eV     1   --> A              
     e( 34 - 34) =     24.84273  eV     1   --> A              
     e( 35 - 35) =     25.43987  eV     1   --> A              
     e( 36 - 36) =     25.96998  eV     1   --> A              
     e( 37 - 37) =     27.54030  eV     1   --> A              
     e( 38 - 38) =     29.12360  eV     1   --> A              
     e( 39 - 39) =     29.40678  eV     1   --> A              
     e( 40 - 40) =     29.80087  eV     1   --> A              

 **************************************************************************

     BANDS        :  17m32.33s CPU  31m30.82s WALL


   This run was terminated on:  13:45: 2   1Dec2023            

=------------------------------------------------------------------------------=
   JOB DONE.
=------------------------------------------------------------------------------=
