
     Program BANDS v.7.1 starts on  1Dec2023 at 14:35:22 

     This program is part of the open-source Quantum ESPRESSO suite
     for quantum simulation of materials; please cite
         "P. Giannozzi et al., J. Phys.:Condens. Matter 21 395502 (2009);
         "P. Giannozzi et al., J. Phys.:Condens. Matter 29 465901 (2017);
         "P. Giannozzi et al., J. Chem. Phys. 152 154105 (2020);
          URL http://www.quantum-espresso.org", 
     in publications or presentations arising from this work. More details at
     http://www.quantum-espresso.org/quote

     Parallel version (MPI & OpenMP), running on      60 processor cores
     Number of MPI processes:                30
     Threads/MPI process:                     2

     MPI processes distributed on     5 nodes
     R & G space division:  proc/nbgrp/npool/nimage =      30
     13415 MiB available memory on the printing compute node when the environment starts


     Reading xml data from directory:

     ./out/TiS.save/

     IMPORTANT: XC functional enforced from input :
     Exchange-correlation= PBE
                           (   1   4   3   4   0   0   0)
     Any further DFT definition will be discarded
     Please, verify this is what you really want


     Parallelization info
     --------------------
     sticks:   dense  smooth     PW     G-vecs:    dense   smooth      PW
     Min          12      12      4                  386      386      66
     Max          13      13      5                  395      395      72
     Sum         379     379    121                11681    11681    2079

     Using Slab Decomposition


     Check: negative core charge=   -0.000033

     negative rho (up, down):  5.209E-03 0.000E+00
     Reading collected, re-writing distributed wavefunctions
     high-symmetry point:  0.0000 0.0000 0.0000   x coordinate   0.0000
     high-symmetry point:  0.5000 0.2887 0.0000   x coordinate   0.5774
     high-symmetry point:  0.3333 0.5773 0.0000   x coordinate   0.9107
     high-symmetry point:  0.0000 0.0000 0.0000   x coordinate   1.5773
     high-symmetry point:  0.5000 0.2887 0.0000   x coordinate   2.1546
     high-symmetry point:  0.0000 0.0000 0.0000   x coordinate   2.7320
     high-symmetry point:  0.0000 0.0000 0.2504   x coordinate   2.9824
     high-symmetry point:  0.5000 0.2887 0.2504   x coordinate   3.5597
     high-symmetry point:  0.3333 0.5773 0.2504   x coordinate   3.8930

     Plottable bands (eV) written to file TiS.bands.gnu
     Bands written to file TiS.bands

 **************************************************************************

                    xk=(   0.00000,   0.00000,   0.00000  )

     point group D_2h (mmm) 
     there are  8 classes
     the character table:

       E     C2    C2'   C2''  i     s_v   s_v'  s_v''
A_g    1.00  1.00  1.00  1.00  1.00  1.00  1.00  1.00
B_1g   1.00  1.00 -1.00 -1.00  1.00  1.00 -1.00 -1.00
B_2g   1.00 -1.00  1.00 -1.00  1.00 -1.00  1.00 -1.00
B_3g   1.00 -1.00 -1.00  1.00  1.00 -1.00 -1.00  1.00
A_u    1.00  1.00  1.00  1.00 -1.00 -1.00 -1.00 -1.00
B_1u   1.00  1.00 -1.00 -1.00 -1.00 -1.00  1.00  1.00
B_2u   1.00 -1.00  1.00 -1.00 -1.00  1.00 -1.00  1.00
B_3u   1.00 -1.00 -1.00  1.00 -1.00  1.00  1.00 -1.00

     the symmetry operations in each class and the name of the first element:

     E        1
                                                                 
     C2       2
                                                                 
     C2'      4
                                                                 
     C2''     3
                                                                 
     i        5
                                                                 
     s_v      6
                                                                 
     s_v'     8
                                                                 
     s_v''    7
                                                                 

     Band symmetry, D_2h (mmm)  point group:

     e(  1 -  1) =    -44.23641  eV     1   --> A_g            
     e(  2 -  2) =    -44.22591  eV     1   --> B_2g           
     e(  3 -  3) =    -20.64147  eV     1   --> B_3u           
     e(  4 -  4) =    -20.49249  eV     1   --> B_1u           
     e(  5 -  6) =    -20.42358  eV     2   --> B_2u           
     e(  5 -  6) =    -20.42358  eV     2   --> B_3u           
     e(  7 -  8) =    -20.41102  eV     2   --> A_u            
     e(  7 -  8) =    -20.41102  eV     2   --> B_1u           
     e(  9 -  9) =     -2.45412  eV     1   --> A_g            
     e( 10 - 10) =     -1.30439  eV     1   --> B_3u           
     e( 11 - 11) =      5.44960  eV     1   --> B_2g           
     e( 12 - 12) =      9.56362  eV     1   --> A_g            
     e( 13 - 13) =      9.56401  eV     1   --> B_1g           
     e( 14 - 14) =      9.70040  eV     1   --> B_1u           
     e( 15 - 15) =     11.05652  eV     1   --> A_g            
     e( 16 - 16) =     11.59950  eV     1   --> B_3u           
     e( 17 - 17) =     11.59973  eV     1   --> B_2u           
     e( 18 - 19) =     12.89352  eV     2   --> B_2g           
     e( 18 - 19) =     12.89352  eV     2   --> B_3g           
     e( 20 - 21) =     13.18292  eV     2   --> A_g            
     e( 20 - 21) =     13.18292  eV     2   --> B_1g           
     e( 22 - 22) =     14.41820  eV     1   --> B_2g           
     e( 23 - 23) =     14.41841  eV     1   --> B_3g           
     e( 24 - 24) =     14.63743  eV     1   --> B_2g           
     e( 25 - 25) =     16.70475  eV     1   --> B_1g           
     e( 26 - 26) =     16.70543  eV     1   --> A_g            
     e( 27 - 27) =     17.11572  eV     1   --> A_g            
     e( 28 - 28) =     17.67902  eV     1   --> B_3u           
     e( 29 - 29) =     21.00500  eV     1   --> B_2u           
     e( 30 - 30) =     21.00532  eV     1   --> B_3u           
     e( 31 - 31) =     22.30522  eV     1   --> A_g            
     e( 32 - 32) =     23.29372  eV     1   --> B_2g           
     e( 33 - 33) =     24.18535  eV     1   --> B_1u           
     e( 34 - 34) =     24.50763  eV     1   --> A_g            
     e( 35 - 35) =     24.50801  eV     1   --> B_1g           
     e( 36 - 36) =     24.97376  eV     1   --> B_1u           
     e( 37 - 37) =     24.97442  eV     1   --> A_u            
     e( 38 - 38) =     25.94527  eV     1   --> B_3u           
     e( 39 - 39) =     26.76345  eV     1   --> B_3g           
     e( 40 - 40) =     26.76424  eV     1   --> B_2g           

 **************************************************************************

 **************************************************************************

                    xk=(   0.01000,   0.00577,   0.00000  )

     point group C_s (m)    
     there are  2 classes
     the character table:

       E     s    
A'     1.00  1.00
A''    1.00 -1.00

     the symmetry operations in each class and the name of the first element:

     E        1
                                                                 
     s        2
                                                                 

     Band symmetry, C_s (m)     point group:

     e(  1 -  1) =    -44.23638  eV     1   --> A'             
     e(  2 -  2) =    -44.22590  eV     1   --> A''            
     e(  3 -  3) =    -20.64143  eV     1   --> A'             
     e(  4 -  4) =    -20.49248  eV     1   --> A''            
     e(  5 -  5) =    -20.42374  eV     1   --> A'             
     e(  6 -  6) =    -20.42361  eV     1   --> A'             
     e(  7 -  7) =    -20.41119  eV     1   --> A''            
     e(  8 -  8) =    -20.41106  eV     1   --> A''            
     e(  9 -  9) =     -2.45278  eV     1   --> A'             
     e( 10 - 10) =     -1.30386  eV     1   --> A'             
     e( 11 - 11) =      5.45136  eV     1   --> A''            
     e( 12 - 12) =      9.56060  eV     1   --> A'             
     e( 13 - 13) =      9.56356  eV     1   --> A'             
     e( 14 - 14) =      9.69761  eV     1   --> A''            
     e( 15 - 15) =     11.05497  eV     1   --> A'             
     e( 16 - 16) =     11.59102  eV     1   --> A'             
     e( 17 - 17) =     11.59448  eV     1   --> A'             
     e( 18 - 18) =     12.89486  eV     1   --> A''            
     e( 19 - 19) =     12.89586  eV     1   --> A''            
     e( 20 - 20) =     13.18625  eV     1   --> A'             
     e( 21 - 21) =     13.18849  eV     1   --> A'             
     e( 22 - 22) =     14.41784  eV     1   --> A''            
     e( 23 - 23) =     14.41866  eV     1   --> A''            
     e( 24 - 24) =     14.63780  eV     1   --> A''            
     e( 25 - 25) =     16.69875  eV     1   --> A'             
     e( 26 - 26) =     16.70404  eV     1   --> A'             
     e( 27 - 27) =     17.12198  eV     1   --> A'             
     e( 28 - 28) =     17.68901  eV     1   --> A'             
     e( 29 - 29) =     21.00115  eV     1   --> A'             
     e( 30 - 30) =     21.01089  eV     1   --> A'             
     e( 31 - 31) =     22.30975  eV     1   --> A'             
     e( 32 - 32) =     23.27752  eV     1   --> A''            
     e( 33 - 33) =     24.18245  eV     1   --> A''            
     e( 34 - 34) =     24.48363  eV     1   --> A'             
     e( 35 - 35) =     24.50935  eV     1   --> A'             
     e( 36 - 36) =     24.96945  eV     1   --> A''            
     e( 37 - 37) =     24.98459  eV     1   --> A''            
     e( 38 - 38) =     25.97284  eV     1   --> A'             
     e( 39 - 39) =     26.76323  eV     1   --> A''            
     e( 40 - 40) =     26.77034  eV     1   --> A''            

 **************************************************************************

 **************************************************************************

                    xk=(   0.02000,   0.01155,   0.00000  )

     Band symmetry, C_s (m)     point group:

     e(  1 -  1) =    -44.23633  eV     1   --> A'             
     e(  2 -  2) =    -44.22582  eV     1   --> A''            
     e(  3 -  3) =    -20.64127  eV     1   --> A'             
     e(  4 -  4) =    -20.49241  eV     1   --> A''            
     e(  5 -  5) =    -20.42429  eV     1   --> A'             
     e(  6 -  6) =    -20.42373  eV     1   --> A'             
     e(  7 -  7) =    -20.41168  eV     1   --> A''            
     e(  8 -  8) =    -20.41117  eV     1   --> A''            
     e(  9 -  9) =     -2.44877  eV     1   --> A'             
     e( 10 - 10) =     -1.30228  eV     1   --> A'             
     e( 11 - 11) =      5.45662  eV     1   --> A''            
     e( 12 - 12) =      9.55070  eV     1   --> A'             
     e( 13 - 13) =      9.56303  eV     1   --> A'             
     e( 14 - 14) =      9.68931  eV     1   --> A''            
     e( 15 - 15) =     11.04982  eV     1   --> A'             
     e( 16 - 16) =     11.56603  eV     1   --> A'             
     e( 17 - 17) =     11.57945  eV     1   --> A'             
     e( 18 - 18) =     12.89887  eV     1   --> A''            
     e( 19 - 19) =     12.90278  eV     1   --> A''            
     e( 20 - 20) =     13.19573  eV     1   --> A'             
     e( 21 - 21) =     13.20490  eV     1   --> A'             
     e( 22 - 22) =     14.41660  eV     1   --> A''            
     e( 23 - 23) =     14.41954  eV     1   --> A''            
     e( 24 - 24) =     14.63891  eV     1   --> A''            
     e( 25 - 25) =     16.68082  eV     1   --> A'             
     e( 26 - 26) =     16.70031  eV     1   --> A'             
     e( 27 - 27) =     17.14069  eV     1   --> A'             
     e( 28 - 28) =     17.71829  eV     1   --> A'             
     e( 29 - 29) =     20.98941  eV     1   --> A'             
     e( 30 - 30) =     21.02747  eV     1   --> A'             
     e( 31 - 31) =     22.32306  eV     1   --> A'             
     e( 32 - 32) =     23.23056  eV     1   --> A''            
     e( 33 - 33) =     24.17337  eV     1   --> A''            
     e( 34 - 34) =     24.41570  eV     1   --> A'             
     e( 35 - 35) =     24.51413  eV     1   --> A'             
     e( 36 - 36) =     24.95599  eV     1   --> A''            
     e( 37 - 37) =     25.01432  eV     1   --> A''            
     e( 38 - 38) =     26.05057  eV     1   --> A'             
     e( 39 - 39) =     26.76096  eV     1   --> A''            
     e( 40 - 40) =     26.79038  eV     1   --> A''            

 **************************************************************************

 **************************************************************************

                    xk=(   0.03000,   0.01732,   0.00000  )

     Band symmetry, C_s (m)     point group:

     e(  1 -  1) =    -44.23624  eV     1   --> A'             
     e(  2 -  2) =    -44.22573  eV     1   --> A''            
     e(  3 -  3) =    -20.64104  eV     1   --> A'             
     e(  4 -  4) =    -20.49228  eV     1   --> A''            
     e(  5 -  5) =    -20.42521  eV     1   --> A'             
     e(  6 -  6) =    -20.42393  eV     1   --> A'             
     e(  7 -  7) =    -20.41251  eV     1   --> A''            
     e(  8 -  8) =    -20.41136  eV     1   --> A''            
     e(  9 -  9) =     -2.44208  eV     1   --> A'             
     e( 10 - 10) =     -1.29966  eV     1   --> A'             
     e( 11 - 11) =      5.46536  eV     1   --> A''            
     e( 12 - 12) =      9.53429  eV     1   --> A'             
     e( 13 - 13) =      9.56215  eV     1   --> A'             
     e( 14 - 14) =      9.67565  eV     1   --> A''            
     e( 15 - 15) =     11.03940  eV     1   --> A'             
     e( 16 - 16) =     11.52765  eV     1   --> A'             
     e( 17 - 17) =     11.55520  eV     1   --> A'             
     e( 18 - 18) =     12.90552  eV     1   --> A''            
     e( 19 - 19) =     12.91405  eV     1   --> A''            
     e( 20 - 20) =     13.21051  eV     1   --> A'             
     e( 21 - 21) =     13.23143  eV     1   --> A'             
     e( 22 - 22) =     14.41459  eV     1   --> A''            
     e( 23 - 23) =     14.42114  eV     1   --> A''            
     e( 24 - 24) =     14.64076  eV     1   --> A''            
     e( 25 - 25) =     16.65257  eV     1   --> A'             
     e( 26 - 26) =     16.69424  eV     1   --> A'             
     e( 27 - 27) =     17.17169  eV     1   --> A'             
     e( 28 - 28) =     17.76499  eV     1   --> A'             
     e( 29 - 29) =     20.97083  eV     1   --> A'             
     e( 30 - 30) =     21.05492  eV     1   --> A'             
     e( 31 - 31) =     22.34440  eV     1   --> A'             
     e( 32 - 32) =     23.15698  eV     1   --> A''            
     e( 33 - 33) =     24.15722  eV     1   --> A''            
     e( 34 - 34) =     24.31532  eV     1   --> A'             
     e( 35 - 35) =     24.52209  eV     1   --> A'             
     e( 36 - 36) =     24.93367  eV     1   --> A''            
     e( 37 - 37) =     25.06000  eV     1   --> A''            
     e( 38 - 38) =     26.16730  eV     1   --> A'             
     e( 39 - 39) =     26.75753  eV     1   --> A''            
     e( 40 - 40) =     26.82392  eV     1   --> A''            

 **************************************************************************

 **************************************************************************

                    xk=(   0.04000,   0.02309,   0.00000  )

     Band symmetry, C_s (m)     point group:

     e(  1 -  1) =    -44.23611  eV     1   --> A'             
     e(  2 -  2) =    -44.22560  eV     1   --> A''            
     e(  3 -  3) =    -20.64072  eV     1   --> A'             
     e(  4 -  4) =    -20.49210  eV     1   --> A''            
     e(  5 -  5) =    -20.42648  eV     1   --> A'             
     e(  6 -  6) =    -20.42422  eV     1   --> A'             
     e(  7 -  7) =    -20.41368  eV     1   --> A''            
     e(  8 -  8) =    -20.41163  eV     1   --> A''            
     e(  9 -  9) =     -2.43274  eV     1   --> A'             
     e( 10 - 10) =     -1.29599  eV     1   --> A'             
     e( 11 - 11) =      5.47758  eV     1   --> A''            
     e( 12 - 12) =      9.51152  eV     1   --> A'             
     e( 13 - 13) =      9.56089  eV     1   --> A'             
     e( 14 - 14) =      9.65682  eV     1   --> A''            
     e( 15 - 15) =     11.02056  eV     1   --> A'             
     e( 16 - 16) =     11.48093  eV     1   --> A'             
     e( 17 - 17) =     11.52274  eV     1   --> A'             
     e( 18 - 18) =     12.91482  eV     1   --> A''            
     e( 19 - 19) =     12.92929  eV     1   --> A''            
     e( 20 - 20) =     13.22933  eV     1   --> A'             
     e( 21 - 21) =     13.26706  eV     1   --> A'             
     e( 22 - 22) =     14.41178  eV     1   --> A''            
     e( 23 - 23) =     14.42361  eV     1   --> A''            
     e( 24 - 24) =     14.64340  eV     1   --> A''            
     e( 25 - 25) =     16.61592  eV     1   --> A'             
     e( 26 - 26) =     16.68602  eV     1   --> A'             
     e( 27 - 27) =     17.21451  eV     1   --> A'             
     e( 28 - 28) =     17.82667  eV     1   --> A'             
     e( 29 - 29) =     20.94673  eV     1   --> A'             
     e( 30 - 30) =     21.09310  eV     1   --> A'             
     e( 31 - 31) =     22.37263  eV     1   --> A'             
     e( 32 - 32) =     23.06201  eV     1   --> A''            
     e( 33 - 33) =     24.13297  eV     1   --> A''            
     e( 34 - 34) =     24.19368  eV     1   --> A'             
     e( 35 - 35) =     24.53326  eV     1   --> A'             
     e( 36 - 36) =     24.90231  eV     1   --> A''            
     e( 37 - 37) =     25.11741  eV     1   --> A''            
     e( 38 - 38) =     26.31188  eV     1   --> A'             
     e( 39 - 39) =     26.75343  eV     1   --> A''            
     e( 40 - 40) =     26.87102  eV     1   --> A''            

 **************************************************************************

 **************************************************************************

                    xk=(   0.05000,   0.02887,   0.00000  )

     Band symmetry, C_s (m)     point group:

     e(  1 -  1) =    -44.23594  eV     1   --> A'             
     e(  2 -  2) =    -44.22544  eV     1   --> A''            
     e(  3 -  3) =    -20.64031  eV     1   --> A'             
     e(  4 -  4) =    -20.49187  eV     1   --> A''            
     e(  5 -  5) =    -20.42811  eV     1   --> A'             
     e(  6 -  6) =    -20.42458  eV     1   --> A'             
     e(  7 -  7) =    -20.41517  eV     1   --> A''            
     e(  8 -  8) =    -20.41197  eV     1   --> A''            
     e(  9 -  9) =     -2.42077  eV     1   --> A'             
     e( 10 - 10) =     -1.29129  eV     1   --> A'             
     e( 11 - 11) =      5.49324  eV     1   --> A''            
     e( 12 - 12) =      9.48257  eV     1   --> A'             
     e( 13 - 13) =      9.55921  eV     1   --> A'             
     e( 14 - 14) =      9.63309  eV     1   --> A''            
     e( 15 - 15) =     10.98841  eV     1   --> A'             
     e( 16 - 16) =     11.43284  eV     1   --> A'             
     e( 17 - 17) =     11.48327  eV     1   --> A'             
     e( 18 - 18) =     12.92672  eV     1   --> A''            
     e( 19 - 19) =     12.94799  eV     1   --> A''            
     e( 20 - 20) =     13.25088  eV     1   --> A'             
     e( 21 - 21) =     13.31054  eV     1   --> A'             
     e( 22 - 22) =     14.40821  eV     1   --> A''            
     e( 23 - 23) =     14.42716  eV     1   --> A''            
     e( 24 - 24) =     14.64687  eV     1   --> A''            
     e( 25 - 25) =     16.57275  eV     1   --> A'             
     e( 26 - 26) =     16.67592  eV     1   --> A'             
     e( 27 - 27) =     17.26842  eV     1   --> A'             
     e( 28 - 28) =     17.90088  eV     1   --> A'             
     e( 29 - 29) =     20.91868  eV     1   --> A'             
     e( 30 - 30) =     21.14173  eV     1   --> A'             
     e( 31 - 31) =     22.40645  eV     1   --> A'             
     e( 32 - 32) =     22.95065  eV     1   --> A''            
     e( 33 - 33) =     24.05924  eV     1   --> A'             
     e( 34 - 34) =     24.09983  eV     1   --> A''            
     e( 35 - 35) =     24.54762  eV     1   --> A'             
     e( 36 - 36) =     24.86195  eV     1   --> A''            
     e( 37 - 37) =     25.18244  eV     1   --> A''            
     e( 38 - 38) =     26.47590  eV     1   --> A'             
     e( 39 - 39) =     26.74924  eV     1   --> A''            
     e( 40 - 40) =     26.93159  eV     1   --> A''            

 **************************************************************************

 **************************************************************************

                    xk=(   0.06000,   0.03464,   0.00000  )

     Band symmetry, C_s (m)     point group:

     e(  1 -  1) =    -44.23574  eV     1   --> A'             
     e(  2 -  2) =    -44.22525  eV     1   --> A''            
     e(  3 -  3) =    -20.63981  eV     1   --> A'             
     e(  4 -  4) =    -20.49160  eV     1   --> A''            
     e(  5 -  5) =    -20.43008  eV     1   --> A'             
     e(  6 -  6) =    -20.42502  eV     1   --> A'             
     e(  7 -  7) =    -20.41699  eV     1   --> A''            
     e(  8 -  8) =    -20.41240  eV     1   --> A''            
     e(  9 -  9) =     -2.40617  eV     1   --> A'             
     e( 10 - 10) =     -1.28556  eV     1   --> A'             
     e( 11 - 11) =      5.51233  eV     1   --> A''            
     e( 12 - 12) =      9.44770  eV     1   --> A'             
     e( 13 - 13) =      9.55709  eV     1   --> A'             
     e( 14 - 14) =      9.60482  eV     1   --> A''            
     e( 15 - 15) =     10.93732  eV     1   --> A'             
     e( 16 - 16) =     11.39119  eV     1   --> A'             
     e( 17 - 17) =     11.43805  eV     1   --> A'             
     e( 18 - 18) =     12.94121  eV     1   --> A''            
     e( 19 - 19) =     12.96951  eV     1   --> A''            
     e( 20 - 20) =     13.27399  eV     1   --> A'             
     e( 21 - 21) =     13.36056  eV     1   --> A'             
     e( 22 - 22) =     14.40392  eV     1   --> A''            
     e( 23 - 23) =     14.43209  eV     1   --> A''            
     e( 24 - 24) =     14.65122  eV     1   --> A''            
     e( 25 - 25) =     16.52467  eV     1   --> A'             
     e( 26 - 26) =     16.66424  eV     1   --> A'             
     e( 27 - 27) =     17.33246  eV     1   --> A'             
     e( 28 - 28) =     17.98537  eV     1   --> A'             
     e( 29 - 29) =     20.88840  eV     1   --> A'             
     e( 30 - 30) =     21.20053  eV     1   --> A'             
     e( 31 - 31) =     22.44454  eV     1   --> A'             
     e( 32 - 32) =     22.82715  eV     1   --> A''            
     e( 33 - 33) =     23.91775  eV     1   --> A'             
     e( 34 - 34) =     24.05720  eV     1   --> A''            
     e( 35 - 35) =     24.56520  eV     1   --> A'             
     e( 36 - 36) =     24.81269  eV     1   --> A''            
     e( 37 - 37) =     25.25188  eV     1   --> A''            
     e( 38 - 38) =     26.65370  eV     1   --> A'             
     e( 39 - 39) =     26.74563  eV     1   --> A''            
     e( 40 - 40) =     27.00520  eV     1   --> A''            

 **************************************************************************

 **************************************************************************

                    xk=(   0.07000,   0.04041,   0.00000  )

     Band symmetry, C_s (m)     point group:

     e(  1 -  1) =    -44.23551  eV     1   --> A'             
     e(  2 -  2) =    -44.22502  eV     1   --> A''            
     e(  3 -  3) =    -20.63923  eV     1   --> A'             
     e(  4 -  4) =    -20.49128  eV     1   --> A''            
     e(  5 -  5) =    -20.43240  eV     1   --> A'             
     e(  6 -  6) =    -20.42554  eV     1   --> A'             
     e(  7 -  7) =    -20.41910  eV     1   --> A''            
     e(  8 -  8) =    -20.41289  eV     1   --> A''            
     e(  9 -  9) =     -2.38898  eV     1   --> A'             
     e( 10 - 10) =     -1.27883  eV     1   --> A'             
     e( 11 - 11) =      5.53480  eV     1   --> A''            
     e( 12 - 12) =      9.40717  eV     1   --> A'             
     e( 13 - 13) =      9.55447  eV     1   --> A'             
     e( 14 - 14) =      9.57236  eV     1   --> A''            
     e( 15 - 15) =     10.86369  eV     1   --> A'             
     e( 16 - 16) =     11.36156  eV     1   --> A'             
     e( 17 - 17) =     11.38828  eV     1   --> A'             
     e( 18 - 18) =     12.95825  eV     1   --> A''            
     e( 19 - 19) =     12.99310  eV     1   --> A''            
     e( 20 - 20) =     13.29772  eV     1   --> A'             
     e( 21 - 21) =     13.41589  eV     1   --> A'             
     e( 22 - 22) =     14.39894  eV     1   --> A''            
     e( 23 - 23) =     14.43873  eV     1   --> A''            
     e( 24 - 24) =     14.65653  eV     1   --> A''            
     e( 25 - 25) =     16.47296  eV     1   --> A'             
     e( 26 - 26) =     16.65135  eV     1   --> A'             
     e( 27 - 27) =     17.40548  eV     1   --> A'             
     e( 28 - 28) =     18.07812  eV     1   --> A'             
     e( 29 - 29) =     20.85762  eV     1   --> A'             
     e( 30 - 30) =     21.26917  eV     1   --> A'             
     e( 31 - 31) =     22.48564  eV     1   --> A'             
     e( 32 - 32) =     22.69488  eV     1   --> A''            
     e( 33 - 33) =     23.77309  eV     1   --> A'             
     e( 34 - 34) =     24.00468  eV     1   --> A''            
     e( 35 - 35) =     24.58601  eV     1   --> A'             
     e( 36 - 36) =     24.75467  eV     1   --> A''            
     e( 37 - 37) =     25.32352  eV     1   --> A''            
     e( 38 - 38) =     26.74322  eV     1   --> A''            
     e( 39 - 39) =     26.84156  eV     1   --> A'             
     e( 40 - 40) =     27.09106  eV     1   --> A''            

 **************************************************************************

 **************************************************************************

                    xk=(   0.08000,   0.04619,   0.00000  )

     Band symmetry, C_s (m)     point group:

     e(  1 -  1) =    -44.23524  eV     1   --> A'             
     e(  2 -  2) =    -44.22475  eV     1   --> A''            
     e(  3 -  3) =    -20.63856  eV     1   --> A'             
     e(  4 -  4) =    -20.49091  eV     1   --> A''            
     e(  5 -  5) =    -20.43504  eV     1   --> A'             
     e(  6 -  6) =    -20.42614  eV     1   --> A'             
     e(  7 -  7) =    -20.42153  eV     1   --> A''            
     e(  8 -  8) =    -20.41345  eV     1   --> A''            
     e(  9 -  9) =     -2.36923  eV     1   --> A'             
     e( 10 - 10) =     -1.27109  eV     1   --> A'             
     e( 11 - 11) =      5.56061  eV     1   --> A''            
     e( 12 - 12) =      9.36130  eV     1   --> A'             
     e( 13 - 13) =      9.53613  eV     1   --> A''            
     e( 14 - 14) =      9.55129  eV     1   --> A'             
     e( 15 - 15) =     10.76819  eV     1   --> A'             
     e( 16 - 16) =     11.33505  eV     1   --> A'             
     e( 17 - 17) =     11.34506  eV     1   --> A'             
     e( 18 - 18) =     12.97779  eV     1   --> A''            
     e( 19 - 19) =     13.01793  eV     1   --> A''            
     e( 20 - 20) =     13.32143  eV     1   --> A'             
     e( 21 - 21) =     13.47537  eV     1   --> A'             
     e( 22 - 22) =     14.39333  eV     1   --> A''            
     e( 23 - 23) =     14.44748  eV     1   --> A''            
     e( 24 - 24) =     14.66287  eV     1   --> A''            
     e( 25 - 25) =     16.41855  eV     1   --> A'             
     e( 26 - 26) =     16.63763  eV     1   --> A'             
     e( 27 - 27) =     17.48623  eV     1   --> A'             
     e( 28 - 28) =     18.17729  eV     1   --> A'             
     e( 29 - 29) =     20.82799  eV     1   --> A'             
     e( 30 - 30) =     21.34727  eV     1   --> A'             
     e( 31 - 31) =     22.52854  eV     1   --> A'             
     e( 32 - 32) =     22.55641  eV     1   --> A''            
     e( 33 - 33) =     23.62798  eV     1   --> A'             
     e( 34 - 34) =     23.94206  eV     1   --> A''            
     e( 35 - 35) =     24.61006  eV     1   --> A'             
     e( 36 - 36) =     24.68815  eV     1   --> A''            
     e( 37 - 37) =     25.39608  eV     1   --> A''            
     e( 38 - 38) =     26.74258  eV     1   --> A''            
     e( 39 - 39) =     27.03689  eV     1   --> A'             
     e( 40 - 40) =     27.18806  eV     1   --> A''            

 **************************************************************************

 **************************************************************************

                    xk=(   0.09000,   0.05196,   0.00000  )

     Band symmetry, C_s (m)     point group:

     e(  1 -  1) =    -44.23494  eV     1   --> A'             
     e(  2 -  2) =    -44.22447  eV     1   --> A''            
     e(  3 -  3) =    -20.63781  eV     1   --> A'             
     e(  4 -  4) =    -20.49049  eV     1   --> A''            
     e(  5 -  5) =    -20.43800  eV     1   --> A'             
     e(  6 -  6) =    -20.42680  eV     1   --> A'             
     e(  7 -  7) =    -20.42425  eV     1   --> A''            
     e(  8 -  8) =    -20.41409  eV     1   --> A''            
     e(  9 -  9) =     -2.34695  eV     1   --> A'             
     e( 10 - 10) =     -1.26236  eV     1   --> A'             
     e( 11 - 11) =      5.58971  eV     1   --> A''            
     e( 12 - 12) =      9.31044  eV     1   --> A'             
     e( 13 - 13) =      9.49654  eV     1   --> A''            
     e( 14 - 14) =      9.54751  eV     1   --> A'             
     e( 15 - 15) =     10.65451  eV     1   --> A'             
     e( 16 - 16) =     11.27933  eV     1   --> A'             
     e( 17 - 17) =     11.33950  eV     1   --> A'             
     e( 18 - 18) =     12.99977  eV     1   --> A''            
     e( 19 - 19) =     13.04310  eV     1   --> A''            
     e( 20 - 20) =     13.34471  eV     1   --> A'             
     e( 21 - 21) =     13.53795  eV     1   --> A'             
     e( 22 - 22) =     14.38714  eV     1   --> A''            
     e( 23 - 23) =     14.45875  eV     1   --> A''            
     e( 24 - 24) =     14.67034  eV     1   --> A''            
     e( 25 - 25) =     16.36217  eV     1   --> A'             
     e( 26 - 26) =     16.62349  eV     1   --> A'             
     e( 27 - 27) =     17.57340  eV     1   --> A'             
     e( 28 - 28) =     18.28110  eV     1   --> A'             
     e( 29 - 29) =     20.80115  eV     1   --> A'             
     e( 30 - 30) =     21.43445  eV     1   --> A'             
     e( 31 - 31) =     22.41375  eV     1   --> A''            
     e( 32 - 32) =     22.57204  eV     1   --> A'             
     e( 33 - 33) =     23.48461  eV     1   --> A'             
     e( 34 - 34) =     23.86928  eV     1   --> A''            
     e( 35 - 35) =     24.61345  eV     1   --> A''            
     e( 36 - 36) =     24.63735  eV     1   --> A'             
     e( 37 - 37) =     25.46903  eV     1   --> A''            
     e( 38 - 38) =     26.74420  eV     1   --> A''            
     e( 39 - 39) =     27.23778  eV     1   --> A'             
     e( 40 - 40) =     27.29456  eV     1   --> A''            

 **************************************************************************

 **************************************************************************

                    xk=(   0.10000,   0.05774,   0.00000  )

     Band symmetry, C_s (m)     point group:

     e(  1 -  1) =    -44.23460  eV     1   --> A'             
     e(  2 -  2) =    -44.22415  eV     1   --> A''            
     e(  3 -  3) =    -20.63698  eV     1   --> A'             
     e(  4 -  4) =    -20.49004  eV     1   --> A''            
     e(  5 -  5) =    -20.44127  eV     1   --> A'             
     e(  6 -  6) =    -20.42754  eV     1   --> A'             
     e(  7 -  7) =    -20.42726  eV     1   --> A''            
     e(  8 -  8) =    -20.41479  eV     1   --> A''            
     e(  9 -  9) =     -2.32219  eV     1   --> A'             
     e( 10 - 10) =     -1.25268  eV     1   --> A'             
     e( 11 - 11) =      5.62204  eV     1   --> A''            
     e( 12 - 12) =      9.25493  eV     1   --> A'             
     e( 13 - 13) =      9.45400  eV     1   --> A''            
     e( 14 - 14) =      9.54306  eV     1   --> A'             
     e( 15 - 15) =     10.52689  eV     1   --> A'             
     e( 16 - 16) =     11.22197  eV     1   --> A'             
     e( 17 - 17) =     11.34197  eV     1   --> A'             
     e( 18 - 18) =     13.02413  eV     1   --> A''            
     e( 19 - 19) =     13.06772  eV     1   --> A''            
     e( 20 - 20) =     13.36743  eV     1   --> A'             
     e( 21 - 21) =     13.60274  eV     1   --> A'             
     e( 22 - 22) =     14.38044  eV     1   --> A''            
     e( 23 - 23) =     14.47296  eV     1   --> A''            
     e( 24 - 24) =     14.67910  eV     1   --> A''            
     e( 25 - 25) =     16.30439  eV     1   --> A'             
     e( 26 - 26) =     16.60935  eV     1   --> A'             
     e( 27 - 27) =     17.66563  eV     1   --> A'             
     e( 28 - 28) =     18.38777  eV     1   --> A'             
     e( 29 - 29) =     20.77872  eV     1   --> A'             
     e( 30 - 30) =     21.53031  eV     1   --> A'             
     e( 31 - 31) =     22.26846  eV     1   --> A''            
     e( 32 - 32) =     22.61474  eV     1   --> A'             
     e( 33 - 33) =     23.34527  eV     1   --> A'             
     e( 34 - 34) =     23.78650  eV     1   --> A''            
     e( 35 - 35) =     24.53102  eV     1   --> A''            
     e( 36 - 36) =     24.66791  eV     1   --> A'             
     e( 37 - 37) =     25.54226  eV     1   --> A''            
     e( 38 - 38) =     26.74841  eV     1   --> A''            
     e( 39 - 39) =     27.40891  eV     1   --> A''            
     e( 40 - 40) =     27.44268  eV     1   --> A'             

 **************************************************************************

 **************************************************************************

                    xk=(   0.11000,   0.06351,   0.00000  )

     Band symmetry, C_s (m)     point group:

     e(  1 -  1) =    -44.23423  eV     1   --> A'             
     e(  2 -  2) =    -44.22380  eV     1   --> A''            
     e(  3 -  3) =    -20.63608  eV     1   --> A'             
     e(  4 -  4) =    -20.48953  eV     1   --> A''            
     e(  5 -  5) =    -20.44483  eV     1   --> A'             
     e(  6 -  6) =    -20.43053  eV     1   --> A''            
     e(  7 -  7) =    -20.42834  eV     1   --> A'             
     e(  8 -  8) =    -20.41555  eV     1   --> A''            
     e(  9 -  9) =     -2.29498  eV     1   --> A'             
     e( 10 - 10) =     -1.24204  eV     1   --> A'             
     e( 11 - 11) =      5.65753  eV     1   --> A''            
     e( 12 - 12) =      9.19514  eV     1   --> A'             
     e( 13 - 13) =      9.40894  eV     1   --> A''            
     e( 14 - 14) =      9.53785  eV     1   --> A'             
     e( 15 - 15) =     10.38880  eV     1   --> A'             
     e( 16 - 16) =     11.16368  eV     1   --> A'             
     e( 17 - 17) =     11.35006  eV     1   --> A'             
     e( 18 - 18) =     13.05078  eV     1   --> A''            
     e( 19 - 19) =     13.09088  eV     1   --> A''            
     e( 20 - 20) =     13.38957  eV     1   --> A'             
     e( 21 - 21) =     13.66893  eV     1   --> A'             
     e( 22 - 22) =     14.37331  eV     1   --> A''            
     e( 23 - 23) =     14.49044  eV     1   --> A''            
     e( 24 - 24) =     14.68933  eV     1   --> A''            
     e( 25 - 25) =     16.24569  eV     1   --> A'             
     e( 26 - 26) =     16.59561  eV     1   --> A'             
     e( 27 - 27) =     17.76153  eV     1   --> A'             
     e( 28 - 28) =     18.49542  eV     1   --> A'             
     e( 29 - 29) =     20.76229  eV     1   --> A'             
     e( 30 - 30) =     21.63445  eV     1   --> A'             
     e( 31 - 31) =     22.12178  eV     1   --> A''            
     e( 32 - 32) =     22.65429  eV     1   --> A'             
     e( 33 - 33) =     23.21300  eV     1   --> A'             
     e( 34 - 34) =     23.69402  eV     1   --> A''            
     e( 35 - 35) =     24.44137  eV     1   --> A''            
     e( 36 - 36) =     24.70173  eV     1   --> A'             
     e( 37 - 37) =     25.61592  eV     1   --> A''            
     e( 38 - 38) =     26.75546  eV     1   --> A''            
     e( 39 - 39) =     27.52935  eV     1   --> A''            
     e( 40 - 40) =     27.65003  eV     1   --> A'             

 **************************************************************************

 **************************************************************************

                    xk=(   0.12000,   0.06928,   0.00000  )

     Band symmetry, C_s (m)     point group:

     e(  1 -  1) =    -44.23384  eV     1   --> A'             
     e(  2 -  2) =    -44.22341  eV     1   --> A''            
     e(  3 -  3) =    -20.63511  eV     1   --> A'             
     e(  4 -  4) =    -20.48899  eV     1   --> A''            
     e(  5 -  5) =    -20.44867  eV     1   --> A'             
     e(  6 -  6) =    -20.43405  eV     1   --> A''            
     e(  7 -  7) =    -20.42921  eV     1   --> A'             
     e(  8 -  8) =    -20.41636  eV     1   --> A''            
     e(  9 -  9) =     -2.26540  eV     1   --> A'             
     e( 10 - 10) =     -1.23049  eV     1   --> A'             
     e( 11 - 11) =      5.69611  eV     1   --> A''            
     e( 12 - 12) =      9.13146  eV     1   --> A'             
     e( 13 - 13) =      9.36174  eV     1   --> A''            
     e( 14 - 14) =      9.53182  eV     1   --> A'             
     e( 15 - 15) =     10.24285  eV     1   --> A'             
     e( 16 - 16) =     11.10510  eV     1   --> A'             
     e( 17 - 17) =     11.36205  eV     1   --> A'             
     e( 18 - 18) =     13.07967  eV     1   --> A''            
     e( 19 - 19) =     13.11170  eV     1   --> A''            
     e( 20 - 20) =     13.41126  eV     1   --> A'             
     e( 21 - 21) =     13.73581  eV     1   --> A'             
     e( 22 - 22) =     14.36583  eV     1   --> A''            
     e( 23 - 23) =     14.51141  eV     1   --> A''            
     e( 24 - 24) =     14.70133  eV     1   --> A''            
     e( 25 - 25) =     16.18648  eV     1   --> A'             
     e( 26 - 26) =     16.58268  eV     1   --> A'             
     e( 27 - 27) =     17.85968  eV     1   --> A'             
     e( 28 - 28) =     18.60209  eV     1   --> A'             
     e( 29 - 29) =     20.75345  eV     1   --> A'             
     e( 30 - 30) =     21.74650  eV     1   --> A'             
     e( 31 - 31) =     21.97464  eV     1   --> A''            
     e( 32 - 32) =     22.68548  eV     1   --> A'             
     e( 33 - 33) =     23.09383  eV     1   --> A'             
     e( 34 - 34) =     23.59227  eV     1   --> A''            
     e( 35 - 35) =     24.34510  eV     1   --> A''            
     e( 36 - 36) =     24.73889  eV     1   --> A'             
     e( 37 - 37) =     25.69013  eV     1   --> A''            
     e( 38 - 38) =     26.76546  eV     1   --> A''            
     e( 39 - 39) =     27.65375  eV     1   --> A''            
     e( 40 - 40) =     27.85802  eV     1   --> A'             

 **************************************************************************

 **************************************************************************

                    xk=(   0.13000,   0.07506,   0.00000  )

     Band symmetry, C_s (m)     point group:

     e(  1 -  1) =    -44.23342  eV     1   --> A'             
     e(  2 -  2) =    -44.22301  eV     1   --> A''            
     e(  3 -  3) =    -20.63407  eV     1   --> A'             
     e(  4 -  4) =    -20.48842  eV     1   --> A''            
     e(  5 -  5) =    -20.45278  eV     1   --> A'             
     e(  6 -  6) =    -20.43782  eV     1   --> A''            
     e(  7 -  7) =    -20.43013  eV     1   --> A'             
     e(  8 -  8) =    -20.41724  eV     1   --> A''            
     e(  9 -  9) =     -2.23348  eV     1   --> A'             
     e( 10 - 10) =     -1.21804  eV     1   --> A'             
     e( 11 - 11) =      5.73771  eV     1   --> A''            
     e( 12 - 12) =      9.06424  eV     1   --> A'             
     e( 13 - 13) =      9.31279  eV     1   --> A''            
     e( 14 - 14) =      9.52489  eV     1   --> A'             
     e( 15 - 15) =     10.09099  eV     1   --> A'             
     e( 16 - 16) =     11.04674  eV     1   --> A'             
     e( 17 - 17) =     11.37672  eV     1   --> A'             
     e( 18 - 18) =     13.11065  eV     1   --> A''            
     e( 19 - 19) =     13.12942  eV     1   --> A''            
     e( 20 - 20) =     13.43273  eV     1   --> A'             
     e( 21 - 21) =     13.80278  eV     1   --> A'             
     e( 22 - 22) =     14.35810  eV     1   --> A''            
     e( 23 - 23) =     14.53584  eV     1   --> A''            
     e( 24 - 24) =     14.71555  eV     1   --> A''            
     e( 25 - 25) =     16.12715  eV     1   --> A'             
     e( 26 - 26) =     16.57094  eV     1   --> A'             
     e( 27 - 27) =     17.95867  eV     1   --> A'             
     e( 28 - 28) =     18.70565  eV     1   --> A'             
     e( 29 - 29) =     20.75376  eV     1   --> A'             
     e( 30 - 30) =     21.82787  eV     1   --> A''            
     e( 31 - 31) =     21.86606  eV     1   --> A'             
     e( 32 - 32) =     22.69479  eV     1   --> A'             
     e( 33 - 33) =     23.00216  eV     1   --> A'             
     e( 34 - 34) =     23.48182  eV     1   --> A''            
     e( 35 - 35) =     24.24276  eV     1   --> A''            
     e( 36 - 36) =     24.77927  eV     1   --> A'             
     e( 37 - 37) =     25.76507  eV     1   --> A''            
     e( 38 - 38) =     26.77842  eV     1   --> A''            
     e( 39 - 39) =     27.78033  eV     1   --> A''            
     e( 40 - 40) =     28.06401  eV     1   --> A'             

 **************************************************************************

 **************************************************************************

                    xk=(   0.14000,   0.08083,   0.00000  )

     Band symmetry, C_s (m)     point group:

     e(  1 -  1) =    -44.23298  eV     1   --> A'             
     e(  2 -  2) =    -44.22258  eV     1   --> A''            
     e(  3 -  3) =    -20.63297  eV     1   --> A'             
     e(  4 -  4) =    -20.48781  eV     1   --> A''            
     e(  5 -  5) =    -20.45713  eV     1   --> A'             
     e(  6 -  6) =    -20.44182  eV     1   --> A''            
     e(  7 -  7) =    -20.43111  eV     1   --> A'             
     e(  8 -  8) =    -20.41817  eV     1   --> A''            
     e(  9 -  9) =     -2.19930  eV     1   --> A'             
     e( 10 - 10) =     -1.20471  eV     1   --> A'             
     e( 11 - 11) =      5.78222  eV     1   --> A''            
     e( 12 - 12) =      8.99383  eV     1   --> A'             
     e( 13 - 13) =      9.26245  eV     1   --> A''            
     e( 14 - 14) =      9.51696  eV     1   --> A'             
     e( 15 - 15) =      9.93472  eV     1   --> A'             
     e( 16 - 16) =     10.98908  eV     1   --> A'             
     e( 17 - 17) =     11.39318  eV     1   --> A'             
     e( 18 - 18) =     13.14337  eV     1   --> A''            
     e( 19 - 19) =     13.14364  eV     1   --> A''            
     e( 20 - 20) =     13.45427  eV     1   --> A'             
     e( 21 - 21) =     13.86930  eV     1   --> A'             
     e( 22 - 22) =     14.35024  eV     1   --> A''            
     e( 23 - 23) =     14.56336  eV     1   --> A''            
     e( 24 - 24) =     14.73271  eV     1   --> A''            
     e( 25 - 25) =     16.06809  eV     1   --> A'             
     e( 26 - 26) =     16.56072  eV     1   --> A'             
     e( 27 - 27) =     18.05705  eV     1   --> A'             
     e( 28 - 28) =     18.80393  eV     1   --> A'             
     e( 29 - 29) =     20.76472  eV     1   --> A'             
     e( 30 - 30) =     21.68212  eV     1   --> A''            
     e( 31 - 31) =     21.99276  eV     1   --> A'             
     e( 32 - 32) =     22.65944  eV     1   --> A'             
     e( 33 - 33) =     22.96179  eV     1   --> A'             
     e( 34 - 34) =     23.36330  eV     1   --> A''            
     e( 35 - 35) =     24.13502  eV     1   --> A''            
     e( 36 - 36) =     24.82288  eV     1   --> A'             
     e( 37 - 37) =     25.84080  eV     1   --> A''            
     e( 38 - 38) =     26.79430  eV     1   --> A''            
     e( 39 - 39) =     27.90729  eV     1   --> A''            
     e( 40 - 40) =     28.26377  eV     1   --> A'             

 **************************************************************************

 **************************************************************************

                    xk=(   0.15000,   0.08660,   0.00000  )

     Band symmetry, C_s (m)     point group:

     e(  1 -  1) =    -44.23250  eV     1   --> A'             
     e(  2 -  2) =    -44.22212  eV     1   --> A''            
     e(  3 -  3) =    -20.63180  eV     1   --> A'             
     e(  4 -  4) =    -20.48716  eV     1   --> A''            
     e(  5 -  5) =    -20.46171  eV     1   --> A'             
     e(  6 -  6) =    -20.44602  eV     1   --> A''            
     e(  7 -  7) =    -20.43214  eV     1   --> A'             
     e(  8 -  8) =    -20.41915  eV     1   --> A''            
     e(  9 -  9) =     -2.16293  eV     1   --> A'             
     e( 10 - 10) =     -1.19054  eV     1   --> A'             
     e( 11 - 11) =      5.82955  eV     1   --> A''            
     e( 12 - 12) =      8.92057  eV     1   --> A'             
     e( 13 - 13) =      9.21106  eV     1   --> A''            
     e( 14 - 14) =      9.50797  eV     1   --> A'             
     e( 15 - 15) =      9.77525  eV     1   --> A'             
     e( 16 - 16) =     10.93251  eV     1   --> A'             
     e( 17 - 17) =     11.41070  eV     1   --> A'             
     e( 18 - 18) =     13.15315  eV     1   --> A''            
     e( 19 - 19) =     13.17845  eV     1   --> A''            
     e( 20 - 20) =     13.47621  eV     1   --> A'             
     e( 21 - 21) =     13.93491  eV     1   --> A'             
     e( 22 - 22) =     14.34237  eV     1   --> A''            
     e( 23 - 23) =     14.59305  eV     1   --> A''            
     e( 24 - 24) =     14.75387  eV     1   --> A''            
     e( 25 - 25) =     16.00966  eV     1   --> A'             
     e( 26 - 26) =     16.55237  eV     1   --> A'             
     e( 27 - 27) =     18.15343  eV     1   --> A'             
     e( 28 - 28) =     18.89479  eV     1   --> A'             
     e( 29 - 29) =     20.78767  eV     1   --> A'             
     e( 30 - 30) =     21.53799  eV     1   --> A''            
     e( 31 - 31) =     22.12629  eV     1   --> A'             
     e( 32 - 32) =     22.58103  eV     1   --> A'             
     e( 33 - 33) =     22.97240  eV     1   --> A'             
     e( 34 - 34) =     23.23744  eV     1   --> A''            
     e( 35 - 35) =     24.02252  eV     1   --> A''            
     e( 36 - 36) =     24.86982  eV     1   --> A'             
     e( 37 - 37) =     25.91728  eV     1   --> A''            
     e( 38 - 38) =     26.81315  eV     1   --> A''            
     e( 39 - 39) =     28.03285  eV     1   --> A''            
     e( 40 - 40) =     28.44986  eV     1   --> A'             

 **************************************************************************

 **************************************************************************

                    xk=(   0.16000,   0.09238,   0.00000  )

     Band symmetry, C_s (m)     point group:

     e(  1 -  1) =    -44.23201  eV     1   --> A'             
     e(  2 -  2) =    -44.22165  eV     1   --> A''            
     e(  3 -  3) =    -20.63059  eV     1   --> A'             
     e(  4 -  4) =    -20.48649  eV     1   --> A''            
     e(  5 -  5) =    -20.46649  eV     1   --> A'             
     e(  6 -  6) =    -20.45043  eV     1   --> A''            
     e(  7 -  7) =    -20.43322  eV     1   --> A'             
     e(  8 -  8) =    -20.42018  eV     1   --> A''            
     e(  9 -  9) =     -2.12444  eV     1   --> A'             
     e( 10 - 10) =     -1.17557  eV     1   --> A'             
     e( 11 - 11) =      5.87959  eV     1   --> A''            
     e( 12 - 12) =      8.84476  eV     1   --> A'             
     e( 13 - 13) =      9.15894  eV     1   --> A''            
     e( 14 - 14) =      9.49784  eV     1   --> A'             
     e( 15 - 15) =      9.61360  eV     1   --> A'             
     e( 16 - 16) =     10.87736  eV     1   --> A'             
     e( 17 - 17) =     11.42869  eV     1   --> A'             
     e( 18 - 18) =     13.15836  eV     1   --> A''            
     e( 19 - 19) =     13.21496  eV     1   --> A''            
     e( 20 - 20) =     13.49890  eV     1   --> A'             
     e( 21 - 21) =     13.99917  eV     1   --> A'             
     e( 22 - 22) =     14.33462  eV     1   --> A''            
     e( 23 - 23) =     14.62344  eV     1   --> A''            
     e( 24 - 24) =     14.78052  eV     1   --> A''            
     e( 25 - 25) =     15.95221  eV     1   --> A'             
     e( 26 - 26) =     16.54615  eV     1   --> A'             
     e( 27 - 27) =     18.24641  eV     1   --> A'             
     e( 28 - 28) =     18.97619  eV     1   --> A'             
     e( 29 - 29) =     20.82355  eV     1   --> A'             
     e( 30 - 30) =     21.39591  eV     1   --> A''            
     e( 31 - 31) =     22.26624  eV     1   --> A'             
     e( 32 - 32) =     22.48513  eV     1   --> A'             
     e( 33 - 33) =     23.00973  eV     1   --> A'             
     e( 34 - 34) =     23.10494  eV     1   --> A''            
     e( 35 - 35) =     23.90583  eV     1   --> A''            
     e( 36 - 36) =     24.91997  eV     1   --> A'             
     e( 37 - 37) =     25.99431  eV     1   --> A''            
     e( 38 - 38) =     26.83445  eV     1   --> A''            
     e( 39 - 39) =     28.15530  eV     1   --> A''            
     e( 40 - 40) =     28.61024  eV     1   --> A'             

 **************************************************************************

 **************************************************************************

                    xk=(   0.17000,   0.09815,   0.00000  )

     Band symmetry, C_s (m)     point group:

     e(  1 -  1) =    -44.23150  eV     1   --> A'             
     e(  2 -  2) =    -44.22116  eV     1   --> A''            
     e(  3 -  3) =    -20.62932  eV     1   --> A'             
     e(  4 -  4) =    -20.48580  eV     1   --> A''            
     e(  5 -  5) =    -20.47147  eV     1   --> A'             
     e(  6 -  6) =    -20.45500  eV     1   --> A''            
     e(  7 -  7) =    -20.43434  eV     1   --> A'             
     e(  8 -  8) =    -20.42125  eV     1   --> A''            
     e(  9 -  9) =     -2.08393  eV     1   --> A'             
     e( 10 - 10) =     -1.15982  eV     1   --> A'             
     e( 11 - 11) =      5.93222  eV     1   --> A''            
     e( 12 - 12) =      8.76662  eV     1   --> A'             
     e( 13 - 13) =      9.10637  eV     1   --> A''            
     e( 14 - 14) =      9.45068  eV     1   --> A'             
     e( 15 - 15) =      9.48649  eV     1   --> A'             
     e( 16 - 16) =     10.82394  eV     1   --> A'             
     e( 17 - 17) =     11.44661  eV     1   --> A'             
     e( 18 - 18) =     13.15890  eV     1   --> A''            
     e( 19 - 19) =     13.25298  eV     1   --> A''            
     e( 20 - 20) =     13.52273  eV     1   --> A'             
     e( 21 - 21) =     14.06174  eV     1   --> A'             
     e( 22 - 22) =     14.32717  eV     1   --> A''            
     e( 23 - 23) =     14.65278  eV     1   --> A''            
     e( 24 - 24) =     14.81429  eV     1   --> A''            
     e( 25 - 25) =     15.89610  eV     1   --> A'             
     e( 26 - 26) =     16.54231  eV     1   --> A'             
     e( 27 - 27) =     18.33470  eV     1   --> A'             
     e( 28 - 28) =     19.04645  eV     1   --> A'             
     e( 29 - 29) =     20.87289  eV     1   --> A'             
     e( 30 - 30) =     21.25632  eV     1   --> A''            
     e( 31 - 31) =     22.38695  eV     1   --> A'             
     e( 32 - 32) =     22.41241  eV     1   --> A'             
     e( 33 - 33) =     22.96654  eV     1   --> A''            
     e( 34 - 34) =     23.06012  eV     1   --> A'             
     e( 35 - 35) =     23.78558  eV     1   --> A''            
     e( 36 - 36) =     24.97332  eV     1   --> A'             
     e( 37 - 37) =     26.07165  eV     1   --> A''            
     e( 38 - 38) =     26.85820  eV     1   --> A''            
     e( 39 - 39) =     28.27304  eV     1   --> A''            
     e( 40 - 40) =     28.73192  eV     1   --> A'             

 **************************************************************************

 **************************************************************************

                    xk=(   0.18000,   0.10392,   0.00000  )

     Band symmetry, C_s (m)     point group:

     e(  1 -  1) =    -44.23097  eV     1   --> A'             
     e(  2 -  2) =    -44.22065  eV     1   --> A''            
     e(  3 -  3) =    -20.62801  eV     1   --> A'             
     e(  4 -  4) =    -20.48508  eV     1   --> A''            
     e(  5 -  5) =    -20.47661  eV     1   --> A'             
     e(  6 -  6) =    -20.45972  eV     1   --> A''            
     e(  7 -  7) =    -20.43550  eV     1   --> A'             
     e(  8 -  8) =    -20.42235  eV     1   --> A''            
     e(  9 -  9) =     -2.04147  eV     1   --> A'             
     e( 10 - 10) =     -1.14332  eV     1   --> A'             
     e( 11 - 11) =      5.98731  eV     1   --> A''            
     e( 12 - 12) =      8.68633  eV     1   --> A'             
     e( 13 - 13) =      9.05364  eV     1   --> A''            
     e( 14 - 14) =      9.28736  eV     1   --> A'             
     e( 15 - 15) =      9.47388  eV     1   --> A'             
     e( 16 - 16) =     10.77249  eV     1   --> A'             
     e( 17 - 17) =     11.46397  eV     1   --> A'             
     e( 18 - 18) =     13.15479  eV     1   --> A''            
     e( 19 - 19) =     13.29230  eV     1   --> A''            
     e( 20 - 20) =     13.54809  eV     1   --> A'             
     e( 21 - 21) =     14.12232  eV     1   --> A'             
     e( 22 - 22) =     14.32022  eV     1   --> A''            
     e( 23 - 23) =     14.67974  eV     1   --> A''            
     e( 24 - 24) =     14.85621  eV     1   --> A''            
     e( 25 - 25) =     15.84168  eV     1   --> A'             
     e( 26 - 26) =     16.54103  eV     1   --> A'             
     e( 27 - 27) =     18.41712  eV     1   --> A'             
     e( 28 - 28) =     19.10430  eV     1   --> A'             
     e( 29 - 29) =     20.93544  eV     1   --> A'             
     e( 30 - 30) =     21.11960  eV     1   --> A''            
     e( 31 - 31) =     22.29260  eV     1   --> A'             
     e( 32 - 32) =     22.56444  eV     1   --> A'             
     e( 33 - 33) =     22.82300  eV     1   --> A''            
     e( 34 - 34) =     23.11910  eV     1   --> A'             
     e( 35 - 35) =     23.66231  eV     1   --> A''            
     e( 36 - 36) =     25.02983  eV     1   --> A'             
     e( 37 - 37) =     26.14897  eV     1   --> A''            
     e( 38 - 38) =     26.88417  eV     1   --> A''            
     e( 39 - 39) =     28.38450  eV     1   --> A''            
     e( 40 - 40) =     28.81231  eV     1   --> A'             

 **************************************************************************

 **************************************************************************

                    xk=(   0.19000,   0.10970,   0.00000  )

     Band symmetry, C_s (m)     point group:

     e(  1 -  1) =    -44.23042  eV     1   --> A'             
     e(  2 -  2) =    -44.22013  eV     1   --> A''            
     e(  3 -  3) =    -20.62667  eV     1   --> A'             
     e(  4 -  4) =    -20.48434  eV     1   --> A''            
     e(  5 -  5) =    -20.48190  eV     1   --> A'             
     e(  6 -  6) =    -20.46459  eV     1   --> A''            
     e(  7 -  7) =    -20.43670  eV     1   --> A'             
     e(  8 -  8) =    -20.42350  eV     1   --> A''            
     e(  9 -  9) =     -1.99719  eV     1   --> A'             
     e( 10 - 10) =     -1.12612  eV     1   --> A'             
     e( 11 - 11) =      6.04473  eV     1   --> A''            
     e( 12 - 12) =      8.60391  eV     1   --> A'             
     e( 13 - 13) =      9.00100  eV     1   --> A''            
     e( 14 - 14) =      9.12453  eV     1   --> A'             
     e( 15 - 15) =      9.45995  eV     1   --> A'             
     e( 16 - 16) =     10.72322  eV     1   --> A'             
     e( 17 - 17) =     11.48031  eV     1   --> A'             
     e( 18 - 18) =     13.14615  eV     1   --> A''            
     e( 19 - 19) =     13.33264  eV     1   --> A''            
     e( 20 - 20) =     13.57536  eV     1   --> A'             
     e( 21 - 21) =     14.18064  eV     1   --> A'             
     e( 22 - 22) =     14.31397  eV     1   --> A''            
     e( 23 - 23) =     14.70395  eV     1   --> A''            
     e( 24 - 24) =     14.90624  eV     1   --> A''            
     e( 25 - 25) =     15.78924  eV     1   --> A'             
     e( 26 - 26) =     16.54246  eV     1   --> A'             
     e( 27 - 27) =     18.49272  eV     1   --> A'             
     e( 28 - 28) =     19.14896  eV     1   --> A'             
     e( 29 - 29) =     20.98607  eV     1   --> A''            
     e( 30 - 30) =     21.01025  eV     1   --> A'             
     e( 31 - 31) =     22.20488  eV     1   --> A'             
     e( 32 - 32) =     22.67502  eV     1   --> A''            
     e( 33 - 33) =     22.72207  eV     1   --> A'             
     e( 34 - 34) =     23.18559  eV     1   --> A'             
     e( 35 - 35) =     23.53656  eV     1   --> A''            
     e( 36 - 36) =     25.08941  eV     1   --> A'             
     e( 37 - 37) =     26.22585  eV     1   --> A''            
     e( 38 - 38) =     26.91214  eV     1   --> A''            
     e( 39 - 39) =     28.48821  eV     1   --> A''            
     e( 40 - 40) =     28.86074  eV     1   --> A'             

 **************************************************************************

 **************************************************************************

                    xk=(   0.20000,   0.11547,   0.00000  )

     Band symmetry, C_s (m)     point group:

     e(  1 -  1) =    -44.22985  eV     1   --> A'             
     e(  2 -  2) =    -44.21958  eV     1   --> A''            
     e(  3 -  3) =    -20.62528  eV     1   --> A'             
     e(  4 -  4) =    -20.48731  eV     1   --> A'             
     e(  5 -  5) =    -20.48360  eV     1   --> A''            
     e(  6 -  6) =    -20.46955  eV     1   --> A''            
     e(  7 -  7) =    -20.43793  eV     1   --> A'             
     e(  8 -  8) =    -20.42467  eV     1   --> A''            
     e(  9 -  9) =     -1.95117  eV     1   --> A'             
     e( 10 - 10) =     -1.10824  eV     1   --> A'             
     e( 11 - 11) =      6.10433  eV     1   --> A''            
     e( 12 - 12) =      8.51916  eV     1   --> A'             
     e( 13 - 13) =      8.94869  eV     1   --> A''            
     e( 14 - 14) =      8.96323  eV     1   --> A'             
     e( 15 - 15) =      9.44469  eV     1   --> A'             
     e( 16 - 16) =     10.67629  eV     1   --> A'             
     e( 17 - 17) =     11.49523  eV     1   --> A'             
     e( 18 - 18) =     13.13323  eV     1   --> A''            
     e( 19 - 19) =     13.37374  eV     1   --> A''            
     e( 20 - 20) =     13.60492  eV     1   --> A'             
     e( 21 - 21) =     14.23651  eV     1   --> A'             
     e( 22 - 22) =     14.30869  eV     1   --> A''            
     e( 23 - 23) =     14.72590  eV     1   --> A''            
     e( 24 - 24) =     14.96347  eV     1   --> A''            
     e( 25 - 25) =     15.73912  eV     1   --> A'             
     e( 26 - 26) =     16.54670  eV     1   --> A'             
     e( 27 - 27) =     18.56083  eV     1   --> A'             
     e( 28 - 28) =     19.18011  eV     1   --> A'             
     e( 29 - 29) =     20.85604  eV     1   --> A''            
     e( 30 - 30) =     21.09558  eV     1   --> A'             
     e( 31 - 31) =     22.12556  eV     1   --> A'             
     e( 32 - 32) =     22.52334  eV     1   --> A''            
     e( 33 - 33) =     22.88506  eV     1   --> A'             
     e( 34 - 34) =     23.25976  eV     1   --> A'             
     e( 35 - 35) =     23.40888  eV     1   --> A''            
     e( 36 - 36) =     25.15207  eV     1   --> A'             
     e( 37 - 37) =     26.30184  eV     1   --> A''            
     e( 38 - 38) =     26.94194  eV     1   --> A''            
     e( 39 - 39) =     28.58283  eV     1   --> A''            
     e( 40 - 40) =     28.88776  eV     1   --> A'             

 **************************************************************************

 **************************************************************************

                    xk=(   0.21000,   0.12124,   0.00000  )

     Band symmetry, C_s (m)     point group:

     e(  1 -  1) =    -44.22928  eV     1   --> A'             
     e(  2 -  2) =    -44.21903  eV     1   --> A''            
     e(  3 -  3) =    -20.62387  eV     1   --> A'             
     e(  4 -  4) =    -20.49284  eV     1   --> A'             
     e(  5 -  5) =    -20.48288  eV     1   --> A''            
     e(  6 -  6) =    -20.47457  eV     1   --> A''            
     e(  7 -  7) =    -20.43918  eV     1   --> A'             
     e(  8 -  8) =    -20.42586  eV     1   --> A''            
     e(  9 -  9) =     -1.90356  eV     1   --> A'             
     e( 10 - 10) =     -1.08975  eV     1   --> A'             
     e( 11 - 11) =      6.16592  eV     1   --> A''            
     e( 12 - 12) =      8.43148  eV     1   --> A'             
     e( 13 - 13) =      8.80485  eV     1   --> A'             
     e( 14 - 14) =      8.89693  eV     1   --> A''            
     e( 15 - 15) =      9.42808  eV     1   --> A'             
     e( 16 - 16) =     10.63183  eV     1   --> A'             
     e( 17 - 17) =     11.50834  eV     1   --> A'             
     e( 18 - 18) =     13.11630  eV     1   --> A''            
     e( 19 - 19) =     13.41523  eV     1   --> A''            
     e( 20 - 20) =     13.63715  eV     1   --> A'             
     e( 21 - 21) =     14.28978  eV     1   --> A'             
     e( 22 - 22) =     14.30467  eV     1   --> A''            
     e( 23 - 23) =     14.74624  eV     1   --> A''            
     e( 24 - 24) =     15.02663  eV     1   --> A''            
     e( 25 - 25) =     15.69154  eV     1   --> A'             
     e( 26 - 26) =     16.55376  eV     1   --> A'             
     e( 27 - 27) =     18.62100  eV     1   --> A'             
     e( 28 - 28) =     19.19778  eV     1   --> A'             
     e( 29 - 29) =     20.72976  eV     1   --> A''            
     e( 30 - 30) =     21.18884  eV     1   --> A'             
     e( 31 - 31) =     22.05597  eV     1   --> A'             
     e( 32 - 32) =     22.36861  eV     1   --> A''            
     e( 33 - 33) =     23.05314  eV     1   --> A'             
     e( 34 - 34) =     23.27969  eV     1   --> A''            
     e( 35 - 35) =     23.34215  eV     1   --> A'             
     e( 36 - 36) =     25.21763  eV     1   --> A'             
     e( 37 - 37) =     26.37645  eV     1   --> A''            
     e( 38 - 38) =     26.97326  eV     1   --> A''            
     e( 39 - 39) =     28.66713  eV     1   --> A''            
     e( 40 - 40) =     28.89972  eV     1   --> A'             

 **************************************************************************

 **************************************************************************

                    xk=(   0.22000,   0.12702,   0.00000  )

     Band symmetry, C_s (m)     point group:

     e(  1 -  1) =    -44.22870  eV     1   --> A'             
     e(  2 -  2) =    -44.21847  eV     1   --> A''            
     e(  3 -  3) =    -20.62244  eV     1   --> A'             
     e(  4 -  4) =    -20.49844  eV     1   --> A'             
     e(  5 -  5) =    -20.48243  eV     1   --> A''            
     e(  6 -  6) =    -20.47940  eV     1   --> A''            
     e(  7 -  7) =    -20.44046  eV     1   --> A'             
     e(  8 -  8) =    -20.42707  eV     1   --> A''            
     e(  9 -  9) =     -1.85447  eV     1   --> A'             
     e( 10 - 10) =     -1.07066  eV     1   --> A'             
     e( 11 - 11) =      6.22933  eV     1   --> A''            
     e( 12 - 12) =      8.33956  eV     1   --> A'             
     e( 13 - 13) =      8.65142  eV     1   --> A'             
     e( 14 - 14) =      8.84594  eV     1   --> A''            
     e( 15 - 15) =      9.41016  eV     1   --> A'             
     e( 16 - 16) =     10.58992  eV     1   --> A'             
     e( 17 - 17) =     11.51930  eV     1   --> A'             
     e( 18 - 18) =     13.09569  eV     1   --> A''            
     e( 19 - 19) =     13.45671  eV     1   --> A''            
     e( 20 - 20) =     13.67238  eV     1   --> A'             
     e( 21 - 21) =     14.30227  eV     1   --> A''            
     e( 22 - 22) =     14.34034  eV     1   --> A'             
     e( 23 - 23) =     14.76560  eV     1   --> A''            
     e( 24 - 24) =     15.09460  eV     1   --> A''            
     e( 25 - 25) =     15.64676  eV     1   --> A'             
     e( 26 - 26) =     16.56362  eV     1   --> A'             
     e( 27 - 27) =     18.67316  eV     1   --> A'             
     e( 28 - 28) =     19.20228  eV     1   --> A'             
     e( 29 - 29) =     20.60748  eV     1   --> A''            
     e( 30 - 30) =     21.28638  eV     1   --> A'             
     e( 31 - 31) =     21.99790  eV     1   --> A'             
     e( 32 - 32) =     22.21152  eV     1   --> A''            
     e( 33 - 33) =     23.14944  eV     1   --> A''            
     e( 34 - 34) =     23.22609  eV     1   --> A'             
     e( 35 - 35) =     23.43354  eV     1   --> A'             
     e( 36 - 36) =     25.28598  eV     1   --> A'             
     e( 37 - 37) =     26.44915  eV     1   --> A''            
     e( 38 - 38) =     27.00590  eV     1   --> A''            
     e( 39 - 39) =     28.74010  eV     1   --> A''            
     e( 40 - 40) =     28.90051  eV     1   --> A'             

 **************************************************************************

 **************************************************************************

                    xk=(   0.23000,   0.13279,   0.00000  )

     Band symmetry, C_s (m)     point group:

     e(  1 -  1) =    -44.22814  eV     1   --> A'             
     e(  2 -  2) =    -44.21791  eV     1   --> A''            
     e(  3 -  3) =    -20.62099  eV     1   --> A'             
     e(  4 -  4) =    -20.50413  eV     1   --> A'             
     e(  5 -  5) =    -20.48542  eV     1   --> A''            
     e(  6 -  6) =    -20.48083  eV     1   --> A''            
     e(  7 -  7) =    -20.44175  eV     1   --> A'             
     e(  8 -  8) =    -20.42829  eV     1   --> A''            
     e(  9 -  9) =     -1.80406  eV     1   --> A'             
     e( 10 - 10) =     -1.05103  eV     1   --> A'             
     e( 11 - 11) =      6.29438  eV     1   --> A''            
     e( 12 - 12) =      8.24093  eV     1   --> A'             
     e( 13 - 13) =      8.50606  eV     1   --> A'             
     e( 14 - 14) =      8.79590  eV     1   --> A''            
     e( 15 - 15) =      9.39097  eV     1   --> A'             
     e( 16 - 16) =     10.55061  eV     1   --> A'             
     e( 17 - 17) =     11.52782  eV     1   --> A'             
     e( 18 - 18) =     13.07173  eV     1   --> A''            
     e( 19 - 19) =     13.49771  eV     1   --> A''            
     e( 20 - 20) =     13.71088  eV     1   --> A'             
     e( 21 - 21) =     14.30189  eV     1   --> A''            
     e( 22 - 22) =     14.38813  eV     1   --> A'             
     e( 23 - 23) =     14.78440  eV     1   --> A''            
     e( 24 - 24) =     15.16636  eV     1   --> A''            
     e( 25 - 25) =     15.60496  eV     1   --> A'             
     e( 26 - 26) =     16.57622  eV     1   --> A'             
     e( 27 - 27) =     18.71746  eV     1   --> A'             
     e( 28 - 28) =     19.19418  eV     1   --> A'             
     e( 29 - 29) =     20.48939  eV     1   --> A''            
     e( 30 - 30) =     21.38257  eV     1   --> A'             
     e( 31 - 31) =     21.95465  eV     1   --> A'             
     e( 32 - 32) =     22.05267  eV     1   --> A''            
     e( 33 - 33) =     23.01857  eV     1   --> A''            
     e( 34 - 34) =     23.40365  eV     1   --> A'             
     e( 35 - 35) =     23.53458  eV     1   --> A'             
     e( 36 - 36) =     25.35694  eV     1   --> A'             
     e( 37 - 37) =     26.51943  eV     1   --> A''            
     e( 38 - 38) =     27.03963  eV     1   --> A''            
     e( 39 - 39) =     28.80097  eV     1   --> A''            
     e( 40 - 40) =     28.89253  eV     1   --> A'             

 **************************************************************************

 **************************************************************************

                    xk=(   0.24000,   0.13856,   0.00000  )

     Band symmetry, C_s (m)     point group:

     e(  1 -  1) =    -44.22754  eV     1   --> A'             
     e(  2 -  2) =    -44.21734  eV     1   --> A''            
     e(  3 -  3) =    -20.61953  eV     1   --> A'             
     e(  4 -  4) =    -20.50984  eV     1   --> A'             
     e(  5 -  5) =    -20.49051  eV     1   --> A''            
     e(  6 -  6) =    -20.48019  eV     1   --> A''            
     e(  7 -  7) =    -20.44305  eV     1   --> A'             
     e(  8 -  8) =    -20.42953  eV     1   --> A''            
     e(  9 -  9) =     -1.75248  eV     1   --> A'             
     e( 10 - 10) =     -1.03089  eV     1   --> A'             
     e( 11 - 11) =      6.36085  eV     1   --> A''            
     e( 12 - 12) =      8.13218  eV     1   --> A'             
     e( 13 - 13) =      8.37288  eV     1   --> A'             
     e( 14 - 14) =      8.74702  eV     1   --> A''            
     e( 15 - 15) =      9.37059  eV     1   --> A'             
     e( 16 - 16) =     10.51391  eV     1   --> A'             
     e( 17 - 17) =     11.53369  eV     1   --> A'             
     e( 18 - 18) =     13.04475  eV     1   --> A''            
     e( 19 - 19) =     13.53769  eV     1   --> A''            
     e( 20 - 20) =     13.75296  eV     1   --> A'             
     e( 21 - 21) =     14.30397  eV     1   --> A''            
     e( 22 - 22) =     14.43314  eV     1   --> A'             
     e( 23 - 23) =     14.80290  eV     1   --> A''            
     e( 24 - 24) =     15.24111  eV     1   --> A''            
     e( 25 - 25) =     15.56631  eV     1   --> A'             
     e( 26 - 26) =     16.59142  eV     1   --> A'             
     e( 27 - 27) =     18.75414  eV     1   --> A'             
     e( 28 - 28) =     19.17441  eV     1   --> A'             
     e( 29 - 29) =     20.37571  eV     1   --> A''            
     e( 30 - 30) =     21.46789  eV     1   --> A'             
     e( 31 - 31) =     21.89272  eV     1   --> A''            
     e( 32 - 32) =     21.93321  eV     1   --> A'             
     e( 33 - 33) =     22.88748  eV     1   --> A''            
     e( 34 - 34) =     23.58565  eV     1   --> A'             
     e( 35 - 35) =     23.64589  eV     1   --> A'             
     e( 36 - 36) =     25.43041  eV     1   --> A'             
     e( 37 - 37) =     26.58677  eV     1   --> A''            
     e( 38 - 38) =     27.07425  eV     1   --> A''            
     e( 39 - 39) =     28.84938  eV     1   --> A''            
     e( 40 - 40) =     28.87774  eV     1   --> A'             

 **************************************************************************

 **************************************************************************

                    xk=(   0.25000,   0.14434,   0.00000  )

     Band symmetry, C_s (m)     point group:

     e(  1 -  1) =    -44.22695  eV     1   --> A'             
     e(  2 -  2) =    -44.21677  eV     1   --> A''            
     e(  3 -  3) =    -20.61807  eV     1   --> A'             
     e(  4 -  4) =    -20.51555  eV     1   --> A'             
     e(  5 -  5) =    -20.49575  eV     1   --> A''            
     e(  6 -  6) =    -20.47942  eV     1   --> A''            
     e(  7 -  7) =    -20.44435  eV     1   --> A'             
     e(  8 -  8) =    -20.43077  eV     1   --> A''            
     e(  9 -  9) =     -1.69991  eV     1   --> A'             
     e( 10 - 10) =     -1.01027  eV     1   --> A'             
     e( 11 - 11) =      6.42851  eV     1   --> A''            
     e( 12 - 12) =      8.01081  eV     1   --> A'             
     e( 13 - 13) =      8.25496  eV     1   --> A'             
     e( 14 - 14) =      8.69946  eV     1   --> A''            
     e( 15 - 15) =      9.34913  eV     1   --> A'             
     e( 16 - 16) =     10.47980  eV     1   --> A'             
     e( 17 - 17) =     11.53675  eV     1   --> A'             
     e( 18 - 18) =     13.01507  eV     1   --> A''            
     e( 19 - 19) =     13.57607  eV     1   --> A''            
     e( 20 - 20) =     13.79879  eV     1   --> A'             
     e( 21 - 21) =     14.30903  eV     1   --> A''            
     e( 22 - 22) =     14.47542  eV     1   --> A'             
     e( 23 - 23) =     14.82126  eV     1   --> A''            
     e( 24 - 24) =     15.31815  eV     1   --> A''            
     e( 25 - 25) =     15.53092  eV     1   --> A'             
     e( 26 - 26) =     16.60905  eV     1   --> A'             
     e( 27 - 27) =     18.78333  eV     1   --> A'             
     e( 28 - 28) =     19.14438  eV     1   --> A'             
     e( 29 - 29) =     20.26659  eV     1   --> A''            
     e( 30 - 30) =     21.52762  eV     1   --> A'             
     e( 31 - 31) =     21.73226  eV     1   --> A''            
     e( 32 - 32) =     21.94560  eV     1   --> A'             
     e( 33 - 33) =     22.75655  eV     1   --> A''            
     e( 34 - 34) =     23.76768  eV     1   --> A'             
     e( 35 - 35) =     23.77187  eV     1   --> A'             
     e( 36 - 36) =     25.50611  eV     1   --> A'             
     e( 37 - 37) =     26.65064  eV     1   --> A''            
     e( 38 - 38) =     27.10952  eV     1   --> A''            
     e( 39 - 39) =     28.85800  eV     1   --> A'             
     e( 40 - 40) =     28.88524  eV     1   --> A''            

 **************************************************************************

 **************************************************************************

                    xk=(   0.26000,   0.15011,   0.00000  )

     Band symmetry, C_s (m)     point group:

     e(  1 -  1) =    -44.22636  eV     1   --> A'             
     e(  2 -  2) =    -44.21620  eV     1   --> A''            
     e(  3 -  3) =    -20.61662  eV     1   --> A'             
     e(  4 -  4) =    -20.52126  eV     1   --> A'             
     e(  5 -  5) =    -20.50100  eV     1   --> A''            
     e(  6 -  6) =    -20.47862  eV     1   --> A''            
     e(  7 -  7) =    -20.44565  eV     1   --> A'             
     e(  8 -  8) =    -20.43200  eV     1   --> A''            
     e(  9 -  9) =     -1.64652  eV     1   --> A'             
     e( 10 - 10) =     -0.98923  eV     1   --> A'             
     e( 11 - 11) =      6.49711  eV     1   --> A''            
     e( 12 - 12) =      7.87822  eV     1   --> A'             
     e( 13 - 13) =      8.15149  eV     1   --> A'             
     e( 14 - 14) =      8.65342  eV     1   --> A''            
     e( 15 - 15) =      9.32671  eV     1   --> A'             
     e( 16 - 16) =     10.44821  eV     1   --> A'             
     e( 17 - 17) =     11.53694  eV     1   --> A'             
     e( 18 - 18) =     12.98300  eV     1   --> A''            
     e( 19 - 19) =     13.61221  eV     1   --> A''            
     e( 20 - 20) =     13.84850  eV     1   --> A'             
     e( 21 - 21) =     14.31759  eV     1   --> A''            
     e( 22 - 22) =     14.51500  eV     1   --> A'             
     e( 23 - 23) =     14.83959  eV     1   --> A''            
     e( 24 - 24) =     15.39686  eV     1   --> A''            
     e( 25 - 25) =     15.49886  eV     1   --> A'             
     e( 26 - 26) =     16.62889  eV     1   --> A'             
     e( 27 - 27) =     18.80451  eV     1   --> A'             
     e( 28 - 28) =     19.10634  eV     1   --> A'             
     e( 29 - 29) =     20.16212  eV     1   --> A''            
     e( 30 - 30) =     21.55057  eV     1   --> A'             
     e( 31 - 31) =     21.57185  eV     1   --> A''            
     e( 32 - 32) =     22.00036  eV     1   --> A'             
     e( 33 - 33) =     22.62616  eV     1   --> A''            
     e( 34 - 34) =     23.89999  eV     1   --> A'             
[...]

 **************************************************************************

                    xk=(   0.37000,   0.21362,   0.25043  )

     zone border point and non-symmorphic group 
     symmetry decomposition not available

 **************************************************************************

 **************************************************************************

                    xk=(   0.38000,   0.21939,   0.25043  )

     zone border point and non-symmorphic group 
     symmetry decomposition not available

 **************************************************************************

 **************************************************************************

                    xk=(   0.39000,   0.22517,   0.25043  )

     zone border point and non-symmorphic group 
     symmetry decomposition not available

 **************************************************************************

 **************************************************************************

                    xk=(   0.40000,   0.23094,   0.25043  )

     zone border point and non-symmorphic group 
     symmetry decomposition not available

 **************************************************************************

 **************************************************************************

                    xk=(   0.41000,   0.23671,   0.25043  )

     zone border point and non-symmorphic group 
     symmetry decomposition not available

 **************************************************************************

 **************************************************************************

                    xk=(   0.42000,   0.24249,   0.25043  )

     zone border point and non-symmorphic group 
     symmetry decomposition not available

 **************************************************************************

 **************************************************************************

                    xk=(   0.43000,   0.24826,   0.25043  )

     zone border point and non-symmorphic group 
     symmetry decomposition not available

 **************************************************************************

 **************************************************************************

                    xk=(   0.44000,   0.25403,   0.25043  )

     zone border point and non-symmorphic group 
     symmetry decomposition not available

 **************************************************************************

 **************************************************************************

                    xk=(   0.45000,   0.25981,   0.25043  )

     zone border point and non-symmorphic group 
     symmetry decomposition not available

 **************************************************************************

 **************************************************************************

                    xk=(   0.46000,   0.26558,   0.25043  )

     zone border point and non-symmorphic group 
     symmetry decomposition not available

 **************************************************************************

 **************************************************************************

                    xk=(   0.47000,   0.27135,   0.25043  )

     zone border point and non-symmorphic group 
     symmetry decomposition not available

 **************************************************************************

 **************************************************************************

                    xk=(   0.48000,   0.27713,   0.25043  )

     zone border point and non-symmorphic group 
     symmetry decomposition not available

 **************************************************************************

 **************************************************************************

                    xk=(   0.49000,   0.28290,   0.25043  )

     zone border point and non-symmorphic group 
     symmetry decomposition not available

 **************************************************************************

 **************************************************************************

                    xk=(   0.50000,   0.28868,   0.25043  )

     zone border point and non-symmorphic group 
     symmetry decomposition not available

 **************************************************************************

 **************************************************************************

                    xk=(   0.49667,   0.29445,   0.25043  )

     zone border point and non-symmorphic group 
     symmetry decomposition not available

 **************************************************************************

 **************************************************************************

                    xk=(   0.49333,   0.30022,   0.25043  )

     zone border point and non-symmorphic group 
     symmetry decomposition not available

 **************************************************************************

 **************************************************************************

                    xk=(   0.49000,   0.30599,   0.25043  )

     zone border point and non-symmorphic group 
     symmetry decomposition not available

 **************************************************************************

 **************************************************************************

                    xk=(   0.48666,   0.31176,   0.25043  )

     zone border point and non-symmorphic group 
     symmetry decomposition not available

 **************************************************************************

 **************************************************************************

                    xk=(   0.48333,   0.31754,   0.25043  )

     zone border point and non-symmorphic group 
     symmetry decomposition not available

 **************************************************************************

 **************************************************************************

                    xk=(   0.48000,   0.32331,   0.25043  )

     zone border point and non-symmorphic group 
     symmetry decomposition not available

 **************************************************************************

 **************************************************************************

                    xk=(   0.47666,   0.32908,   0.25043  )

     zone border point and non-symmorphic group 
     symmetry decomposition not available

 **************************************************************************

 **************************************************************************

                    xk=(   0.47333,   0.33485,   0.25043  )

     zone border point and non-symmorphic group 
     symmetry decomposition not available

 **************************************************************************

 **************************************************************************

                    xk=(   0.46999,   0.34063,   0.25043  )

     zone border point and non-symmorphic group 
     symmetry decomposition not available

 **************************************************************************

 **************************************************************************

                    xk=(   0.46666,   0.34640,   0.25043  )

     zone border point and non-symmorphic group 
     symmetry decomposition not available

 **************************************************************************

 **************************************************************************

                    xk=(   0.46333,   0.35217,   0.25043  )

     zone border point and non-symmorphic group 
     symmetry decomposition not available

 **************************************************************************

 **************************************************************************

                    xk=(   0.45999,   0.35794,   0.25043  )

     zone border point and non-symmorphic group 
     symmetry decomposition not available

 **************************************************************************

 **************************************************************************

                    xk=(   0.45666,   0.36372,   0.25043  )

     zone border point and non-symmorphic group 
     symmetry decomposition not available

 **************************************************************************

 **************************************************************************

                    xk=(   0.45332,   0.36949,   0.25043  )

     zone border point and non-symmorphic group 
     symmetry decomposition not available

 **************************************************************************

 **************************************************************************

                    xk=(   0.44999,   0.37526,   0.25043  )

     zone border point and non-symmorphic group 
     symmetry decomposition not available

 **************************************************************************

 **************************************************************************

                    xk=(   0.44666,   0.38103,   0.25043  )

     zone border point and non-symmorphic group 
     symmetry decomposition not available

 **************************************************************************

 **************************************************************************

                    xk=(   0.44332,   0.38681,   0.25043  )

     zone border point and non-symmorphic group 
     symmetry decomposition not available

 **************************************************************************

 **************************************************************************

                    xk=(   0.43999,   0.39258,   0.25043  )

     zone border point and non-symmorphic group 
     symmetry decomposition not available

 **************************************************************************

 **************************************************************************

                    xk=(   0.43665,   0.39835,   0.25043  )

     zone border point and non-symmorphic group 
     symmetry decomposition not available

 **************************************************************************

 **************************************************************************

                    xk=(   0.43332,   0.40412,   0.25043  )

     zone border point and non-symmorphic group 
     symmetry decomposition not available

 **************************************************************************

 **************************************************************************

                    xk=(   0.42999,   0.40989,   0.25043  )

     zone border point and non-symmorphic group 
     symmetry decomposition not available

 **************************************************************************

 **************************************************************************

                    xk=(   0.42665,   0.41567,   0.25043  )

     zone border point and non-symmorphic group 
     symmetry decomposition not available

 **************************************************************************

 **************************************************************************

                    xk=(   0.42332,   0.42144,   0.25043  )

     zone border point and non-symmorphic group 
     symmetry decomposition not available

 **************************************************************************

 **************************************************************************

                    xk=(   0.41998,   0.42721,   0.25043  )

     zone border point and non-symmorphic group 
     symmetry decomposition not available

 **************************************************************************

 **************************************************************************

                    xk=(   0.41665,   0.43298,   0.25043  )

     zone border point and non-symmorphic group 
     symmetry decomposition not available

 **************************************************************************

 **************************************************************************

                    xk=(   0.41332,   0.43876,   0.25043  )

     zone border point and non-symmorphic group 
     symmetry decomposition not available

 **************************************************************************

 **************************************************************************

                    xk=(   0.40998,   0.44453,   0.25043  )

     zone border point and non-symmorphic group 
     symmetry decomposition not available

 **************************************************************************

 **************************************************************************

                    xk=(   0.40665,   0.45030,   0.25043  )

     zone border point and non-symmorphic group 
     symmetry decomposition not available

 **************************************************************************

 **************************************************************************

                    xk=(   0.40331,   0.45607,   0.25043  )

     zone border point and non-symmorphic group 
     symmetry decomposition not available

 **************************************************************************

 **************************************************************************

                    xk=(   0.39998,   0.46185,   0.25043  )

     zone border point and non-symmorphic group 
     symmetry decomposition not available

 **************************************************************************

 **************************************************************************

                    xk=(   0.39665,   0.46762,   0.25043  )

     zone border point and non-symmorphic group 
     symmetry decomposition not available

 **************************************************************************

 **************************************************************************

                    xk=(   0.39331,   0.47339,   0.25043  )

     zone border point and non-symmorphic group 
     symmetry decomposition not available

 **************************************************************************

 **************************************************************************

                    xk=(   0.38998,   0.47916,   0.25043  )

     zone border point and non-symmorphic group 
     symmetry decomposition not available

 **************************************************************************

 **************************************************************************

                    xk=(   0.38664,   0.48493,   0.25043  )

     zone border point and non-symmorphic group 
     symmetry decomposition not available

 **************************************************************************

 **************************************************************************

                    xk=(   0.38331,   0.49071,   0.25043  )

     zone border point and non-symmorphic group 
     symmetry decomposition not available

 **************************************************************************

 **************************************************************************

                    xk=(   0.37998,   0.49648,   0.25043  )

     zone border point and non-symmorphic group 
     symmetry decomposition not available

 **************************************************************************

 **************************************************************************

                    xk=(   0.37664,   0.50225,   0.25043  )

     zone border point and non-symmorphic group 
     symmetry decomposition not available

 **************************************************************************

 **************************************************************************

                    xk=(   0.37331,   0.50802,   0.25043  )

     zone border point and non-symmorphic group 
     symmetry decomposition not available

 **************************************************************************

 **************************************************************************

                    xk=(   0.36997,   0.51380,   0.25043  )

     zone border point and non-symmorphic group 
     symmetry decomposition not available

 **************************************************************************

 **************************************************************************

                    xk=(   0.36664,   0.51957,   0.25043  )

     zone border point and non-symmorphic group 
     symmetry decomposition not available

 **************************************************************************

 **************************************************************************

                    xk=(   0.36331,   0.52534,   0.25043  )

     zone border point and non-symmorphic group 
     symmetry decomposition not available

 **************************************************************************

 **************************************************************************

                    xk=(   0.35997,   0.53111,   0.25043  )

     zone border point and non-symmorphic group 
     symmetry decomposition not available

 **************************************************************************

 **************************************************************************

                    xk=(   0.35664,   0.53689,   0.25043  )

     zone border point and non-symmorphic group 
     symmetry decomposition not available

 **************************************************************************

 **************************************************************************

                    xk=(   0.35330,   0.54266,   0.25043  )

     zone border point and non-symmorphic group 
     symmetry decomposition not available

 **************************************************************************

 **************************************************************************

                    xk=(   0.34997,   0.54843,   0.25043  )

     zone border point and non-symmorphic group 
     symmetry decomposition not available

 **************************************************************************

 **************************************************************************

                    xk=(   0.34664,   0.55420,   0.25043  )

     zone border point and non-symmorphic group 
     symmetry decomposition not available

 **************************************************************************

 **************************************************************************

                    xk=(   0.34330,   0.55998,   0.25043  )

     zone border point and non-symmorphic group 
     symmetry decomposition not available

 **************************************************************************

 **************************************************************************

                    xk=(   0.33997,   0.56575,   0.25043  )

     zone border point and non-symmorphic group 
     symmetry decomposition not available

 **************************************************************************

 **************************************************************************

                    xk=(   0.33663,   0.57152,   0.25043  )

     zone border point and non-symmorphic group 
     symmetry decomposition not available

 **************************************************************************

 **************************************************************************

                    xk=(   0.33330,   0.57729,   0.25043  )

     zone border point and non-symmorphic group 
     symmetry decomposition not available

 **************************************************************************

     BANDS        :   3m20.40s CPU   6m19.61s WALL


   This run was terminated on:  14:41:41   1Dec2023            

=------------------------------------------------------------------------------=
   JOB DONE.
=------------------------------------------------------------------------------=
