
     Program BANDS v.7.1 starts on  3Dec2023 at 14:53:23 

     This program is part of the open-source Quantum ESPRESSO suite
     for quantum simulation of materials; please cite
         "P. Giannozzi et al., J. Phys.:Condens. Matter 21 395502 (2009);
         "P. Giannozzi et al., J. Phys.:Condens. Matter 29 465901 (2017);
         "P. Giannozzi et al., J. Chem. Phys. 152 154105 (2020);
          URL http://www.quantum-espresso.org", 
     in publications or presentations arising from this work. More details at
     http://www.quantum-espresso.org/quote

     Parallel version (MPI & OpenMP), running on      60 processor cores
     Number of MPI processes:                30
     Threads/MPI process:                     2

     MPI processes distributed on     5 nodes
     R & G space division:  proc/nbgrp/npool/nimage =      30
     12805 MiB available memory on the printing compute node when the environment starts


     Reading xml data from directory:

     ./out/TiS.save/

     IMPORTANT: XC functional enforced from input :
     Exchange-correlation= PBE
                           (   1   4   3   4   0   0   0)
     Any further DFT definition will be discarded
     Please, verify this is what you really want


     Parallelization info
     --------------------
     sticks:   dense  smooth     PW     G-vecs:    dense   smooth      PW
     Min          12      12      4                  386      386      66
     Max          13      13      5                  395      395      72
     Sum         379     379    121                11681    11681    2079

     Using Slab Decomposition


     Check: negative core charge=   -0.000033

     negative rho (up, down):  5.209E-03 0.000E+00
     Reading collected, re-writing distributed wavefunctions
     Message from routine punch_plottable_bands:
     two consecutive same k, exiting
     Bands written to file TiS.bands

 **************************************************************************

                    xk=(   0.00000,   0.00000,   0.00000  )

     point group D_2h (mmm) 
     there are  8 classes
     the character table:

       E     C2    C2'   C2''  i     s_v   s_v'  s_v''
A_g    1.00  1.00  1.00  1.00  1.00  1.00  1.00  1.00
B_1g   1.00  1.00 -1.00 -1.00  1.00  1.00 -1.00 -1.00
B_2g   1.00 -1.00  1.00 -1.00  1.00 -1.00  1.00 -1.00
B_3g   1.00 -1.00 -1.00  1.00  1.00 -1.00 -1.00  1.00
A_u    1.00  1.00  1.00  1.00 -1.00 -1.00 -1.00 -1.00
B_1u   1.00  1.00 -1.00 -1.00 -1.00 -1.00  1.00  1.00
B_2u   1.00 -1.00  1.00 -1.00 -1.00  1.00 -1.00  1.00
B_3u   1.00 -1.00 -1.00  1.00 -1.00  1.00  1.00 -1.00

     the symmetry operations in each class and the name of the first element:

     E        1
                                                                 
     C2       2
                                                                 
     C2'      4
                                                                 
     C2''     3
                                                                 
     i        5
                                                                 
     s_v      6
                                                                 
     s_v'     8
                                                                 
     s_v''    7
                                                                 

     Band symmetry, D_2h (mmm)  point group:

     e(  1 -  1) =    -44.23641  eV     1   --> A_g            
     e(  2 -  2) =    -44.22591  eV     1   --> B_2g           
     e(  3 -  3) =    -20.64147  eV     1   --> B_3u           
     e(  4 -  4) =    -20.49249  eV     1   --> B_1u           
     e(  5 -  6) =    -20.42358  eV     2   --> B_2u           
     e(  5 -  6) =    -20.42358  eV     2   --> B_3u           
     e(  7 -  8) =    -20.41102  eV     2   --> A_u            
     e(  7 -  8) =    -20.41102  eV     2   --> B_1u           
     e(  9 -  9) =     -2.45412  eV     1   --> A_g            
     e( 10 - 10) =     -1.30439  eV     1   --> B_3u           
     e( 11 - 11) =      5.44960  eV     1   --> B_2g           
     e( 12 - 12) =      9.56362  eV     1   --> A_g            
     e( 13 - 13) =      9.56401  eV     1   --> B_1g           
     e( 14 - 14) =      9.70040  eV     1   --> B_1u           
     e( 15 - 15) =     11.05652  eV     1   --> A_g            
     e( 16 - 16) =     11.59950  eV     1   --> B_3u           
     e( 17 - 17) =     11.59973  eV     1   --> B_2u           
     e( 18 - 19) =     12.89352  eV     2   --> B_2g           
     e( 18 - 19) =     12.89352  eV     2   --> B_3g           
     e( 20 - 21) =     13.18292  eV     2   --> A_g            
     e( 20 - 21) =     13.18292  eV     2   --> B_1g           
     e( 22 - 22) =     14.41820  eV     1   --> B_2g           
     e( 23 - 23) =     14.41841  eV     1   --> B_3g           
     e( 24 - 24) =     14.63743  eV     1   --> B_2g           
     e( 25 - 25) =     16.70475  eV     1   --> B_1g           
     e( 26 - 26) =     16.70543  eV     1   --> A_g            
     e( 27 - 27) =     17.11572  eV     1   --> A_g            
     e( 28 - 28) =     17.67902  eV     1   --> B_3u           
     e( 29 - 29) =     21.00500  eV     1   --> B_2u           
     e( 30 - 30) =     21.00532  eV     1   --> B_3u           
     e( 31 - 31) =     22.30522  eV     1   --> A_g            
     e( 32 - 32) =     23.29372  eV     1   --> B_2g           
     e( 33 - 33) =     24.18535  eV     1   --> B_1u           
     e( 34 - 34) =     24.50763  eV     1   --> A_g            
     e( 35 - 35) =     24.50801  eV     1   --> B_1g           
     e( 36 - 36) =     24.97376  eV     1   --> B_1u           
     e( 37 - 37) =     24.97442  eV     1   --> A_u            
     e( 38 - 38) =     25.94527  eV     1   --> B_3u           
     e( 39 - 39) =     26.76345  eV     1   --> B_3g           
     e( 40 - 40) =     26.76424  eV     1   --> B_2g           

 **************************************************************************

 **************************************************************************

                    xk=(   0.01020,   0.00589,   0.00000  )

     point group C_s (m)    
     there are  2 classes
     the character table:

       E     s    
A'     1.00  1.00
A''    1.00 -1.00

     the symmetry operations in each class and the name of the first element:

     E        1
                                                                 
     s        2
                                                                 

     Band symmetry, C_s (m)     point group:

     e(  1 -  1) =    -44.23638  eV     1   --> A'             
     e(  2 -  2) =    -44.22589  eV     1   --> A''            
     e(  3 -  3) =    -20.64142  eV     1   --> A'             
     e(  4 -  4) =    -20.49248  eV     1   --> A''            
     e(  5 -  5) =    -20.42375  eV     1   --> A'             
     e(  6 -  6) =    -20.42361  eV     1   --> A'             
     e(  7 -  7) =    -20.41119  eV     1   --> A''            
     e(  8 -  8) =    -20.41106  eV     1   --> A''            
     e(  9 -  9) =     -2.45272  eV     1   --> A'             
     e( 10 - 10) =     -1.30384  eV     1   --> A'             
     e( 11 - 11) =      5.45143  eV     1   --> A''            
     e( 12 - 12) =      9.56046  eV     1   --> A'             
     e( 13 - 13) =      9.56355  eV     1   --> A'             
     e( 14 - 14) =      9.69750  eV     1   --> A''            
     e( 15 - 15) =     11.05491  eV     1   --> A'             
     e( 16 - 16) =     11.59067  eV     1   --> A'             
     e( 17 - 17) =     11.59427  eV     1   --> A'             
     e( 18 - 18) =     12.89492  eV     1   --> A''            
     e( 19 - 19) =     12.89595  eV     1   --> A''            
     e( 20 - 20) =     13.18638  eV     1   --> A'             
     e( 21 - 21) =     13.18872  eV     1   --> A'             
     e( 22 - 22) =     14.41782  eV     1   --> A''            
     e( 23 - 23) =     14.41867  eV     1   --> A''            
     e( 24 - 24) =     14.63781  eV     1   --> A''            
     e( 25 - 25) =     16.69850  eV     1   --> A'             
     e( 26 - 26) =     16.70399  eV     1   --> A'             
     e( 27 - 27) =     17.12224  eV     1   --> A'             
     e( 28 - 28) =     17.68942  eV     1   --> A'             
     e( 29 - 29) =     21.00098  eV     1   --> A'             
     e( 30 - 30) =     21.01112  eV     1   --> A'             
     e( 31 - 31) =     22.30994  eV     1   --> A'             
     e( 32 - 32) =     23.27686  eV     1   --> A''            
     e( 33 - 33) =     24.18233  eV     1   --> A''            
     e( 34 - 34) =     24.48265  eV     1   --> A'             
     e( 35 - 35) =     24.50942  eV     1   --> A'             
     e( 36 - 36) =     24.96927  eV     1   --> A''            
     e( 37 - 37) =     24.98501  eV     1   --> A''            
     e( 38 - 38) =     25.97396  eV     1   --> A'             
     e( 39 - 39) =     26.76320  eV     1   --> A''            
     e( 40 - 40) =     26.77061  eV     1   --> A''            

 **************************************************************************

 **************************************************************************

                    xk=(   0.02041,   0.01178,   0.00000  )

     Band symmetry, C_s (m)     point group:

     e(  1 -  1) =    -44.23633  eV     1   --> A'             
     e(  2 -  2) =    -44.22582  eV     1   --> A''            
     e(  3 -  3) =    -20.64127  eV     1   --> A'             
     e(  4 -  4) =    -20.49241  eV     1   --> A''            
     e(  5 -  5) =    -20.42432  eV     1   --> A'             
     e(  6 -  6) =    -20.42374  eV     1   --> A'             
     e(  7 -  7) =    -20.41170  eV     1   --> A''            
     e(  8 -  8) =    -20.41118  eV     1   --> A''            
     e(  9 -  9) =     -2.44854  eV     1   --> A'             
     e( 10 - 10) =     -1.30219  eV     1   --> A'             
     e( 11 - 11) =      5.45691  eV     1   --> A''            
     e( 12 - 12) =      9.55016  eV     1   --> A'             
     e( 13 - 13) =      9.56301  eV     1   --> A'             
     e( 14 - 14) =      9.68886  eV     1   --> A''            
     e( 15 - 15) =     11.04951  eV     1   --> A'             
     e( 16 - 16) =     11.56470  eV     1   --> A'             
     e( 17 - 17) =     11.57864  eV     1   --> A'             
     e( 18 - 18) =     12.89909  eV     1   --> A''            
     e( 19 - 19) =     12.90315  eV     1   --> A''            
     e( 20 - 20) =     13.19624  eV     1   --> A'             
     e( 21 - 21) =     13.20579  eV     1   --> A'             
     e( 22 - 22) =     14.41654  eV     1   --> A''            
     e( 23 - 23) =     14.41959  eV     1   --> A''            
     e( 24 - 24) =     14.63897  eV     1   --> A''            
     e( 25 - 25) =     16.67986  eV     1   --> A'             
     e( 26 - 26) =     16.70010  eV     1   --> A'             
     e( 27 - 27) =     17.14172  eV     1   --> A'             
     e( 28 - 28) =     17.71987  eV     1   --> A'             
     e( 29 - 29) =     20.98878  eV     1   --> A'             
     e( 30 - 30) =     21.02838  eV     1   --> A'             
     e( 31 - 31) =     22.32378  eV     1   --> A'             
     e( 32 - 32) =     23.22804  eV     1   --> A''            
     e( 33 - 33) =     24.17286  eV     1   --> A''            
     e( 34 - 34) =     24.41215  eV     1   --> A'             
     e( 35 - 35) =     24.51439  eV     1   --> A'             
     e( 36 - 36) =     24.95525  eV     1   --> A''            
     e( 37 - 37) =     25.01590  eV     1   --> A''            
     e( 38 - 38) =     26.05466  eV     1   --> A'             
     e( 39 - 39) =     26.76084  eV     1   --> A''            
     e( 40 - 40) =     26.79148  eV     1   --> A''            

 **************************************************************************

 **************************************************************************

                    xk=(   0.03061,   0.01767,   0.00000  )

     Band symmetry, C_s (m)     point group:

     e(  1 -  1) =    -44.23623  eV     1   --> A'             
     e(  2 -  2) =    -44.22572  eV     1   --> A''            
     e(  3 -  3) =    -20.64103  eV     1   --> A'             
     e(  4 -  4) =    -20.49227  eV     1   --> A''            
     e(  5 -  5) =    -20.42527  eV     1   --> A'             
     e(  6 -  6) =    -20.42395  eV     1   --> A'             
     e(  7 -  7) =    -20.41258  eV     1   --> A''            
     e(  8 -  8) =    -20.41138  eV     1   --> A''            
     e(  9 -  9) =     -2.44159  eV     1   --> A'             
     e( 10 - 10) =     -1.29946  eV     1   --> A'             
     e( 11 - 11) =      5.46601  eV     1   --> A''            
     e( 12 - 12) =      9.53308  eV     1   --> A'             
     e( 13 - 13) =      9.56209  eV     1   --> A'             
     e( 14 - 14) =      9.67464  eV     1   --> A''            
     e( 15 - 15) =     11.03853  eV     1   --> A'             
     e( 16 - 16) =     11.52497  eV     1   --> A'             
     e( 17 - 17) =     11.55344  eV     1   --> A'             
     e( 18 - 18) =     12.90602  eV     1   --> A''            
     e( 19 - 19) =     12.91487  eV     1   --> A''            
     e( 20 - 20) =     13.21156  eV     1   --> A'             
     e( 21 - 21) =     13.23336  eV     1   --> A'             
     e( 22 - 22) =     14.41444  eV     1   --> A''            
     e( 23 - 23) =     14.42127  eV     1   --> A''            
     e( 24 - 24) =     14.64090  eV     1   --> A''            
     e( 25 - 25) =     16.65055  eV     1   --> A'             
     e( 26 - 26) =     16.69380  eV     1   --> A'             
     e( 27 - 27) =     17.17398  eV     1   --> A'             
     e( 28 - 28) =     17.76836  eV     1   --> A'             
     e( 29 - 29) =     20.96949  eV     1   --> A'             
     e( 30 - 30) =     21.05695  eV     1   --> A'             
     e( 31 - 31) =     22.34594  eV     1   --> A'             
     e( 32 - 32) =     23.15172  eV     1   --> A''            
     e( 33 - 33) =     24.15597  eV     1   --> A''            
     e( 34 - 34) =     24.30838  eV     1   --> A'             
     e( 35 - 35) =     24.52269  eV     1   --> A'             
     e( 36 - 36) =     24.93201  eV     1   --> A''            
     e( 37 - 37) =     25.06322  eV     1   --> A''            
     e( 38 - 38) =     26.17546  eV     1   --> A'             
     e( 39 - 39) =     26.75729  eV     1   --> A''            
     e( 40 - 40) =     26.82641  eV     1   --> A''            

 **************************************************************************

 **************************************************************************

                    xk=(   0.04082,   0.02357,   0.00000  )

     Band symmetry, C_s (m)     point group:

     e(  1 -  1) =    -44.23610  eV     1   --> A'             
     e(  2 -  2) =    -44.22559  eV     1   --> A''            
     e(  3 -  3) =    -20.64069  eV     1   --> A'             
     e(  4 -  4) =    -20.49208  eV     1   --> A''            
     e(  5 -  5) =    -20.42660  eV     1   --> A'             
     e(  6 -  6) =    -20.42424  eV     1   --> A'             
     e(  7 -  7) =    -20.41379  eV     1   --> A''            
     e(  8 -  8) =    -20.41165  eV     1   --> A''            
     e(  9 -  9) =     -2.43187  eV     1   --> A'             
     e( 10 - 10) =     -1.29564  eV     1   --> A'             
     e( 11 - 11) =      5.47873  eV     1   --> A''            
     e( 12 - 12) =      9.50938  eV     1   --> A'             
     e( 13 - 13) =      9.56077  eV     1   --> A'             
     e( 14 - 14) =      9.65506  eV     1   --> A''            
     e( 15 - 15) =     11.01851  eV     1   --> A'             
     e( 16 - 16) =     11.47695  eV     1   --> A'             
     e( 17 - 17) =     11.51976  eV     1   --> A'             
     e( 18 - 18) =     12.91569  eV     1   --> A''            
     e( 19 - 19) =     12.93070  eV     1   --> A''            
     e( 20 - 20) =     13.23100  eV     1   --> A'             
     e( 21 - 21) =     13.27034  eV     1   --> A'             
     e( 22 - 22) =     14.41152  eV     1   --> A''            
     e( 23 - 23) =     14.42385  eV     1   --> A''            
     e( 24 - 24) =     14.64365  eV     1   --> A''            
     e( 25 - 25) =     16.61261  eV     1   --> A'             
     e( 26 - 26) =     16.68527  eV     1   --> A'             
     e( 27 - 27) =     17.21851  eV     1   --> A'             
     e( 28 - 28) =     17.83229  eV     1   --> A'             
     e( 29 - 29) =     20.94457  eV     1   --> A'             
     e( 30 - 30) =     21.09668  eV     1   --> A'             
     e( 31 - 31) =     22.37520  eV     1   --> A'             
     e( 32 - 32) =     23.05347  eV     1   --> A''            
     e( 33 - 33) =     24.13061  eV     1   --> A''            
     e( 34 - 34) =     24.18309  eV     1   --> A'             
     e( 35 - 35) =     24.53431  eV     1   --> A'             
     e( 36 - 36) =     24.89935  eV     1   --> A''            
     e( 37 - 37) =     25.12248  eV     1   --> A''            
     e( 38 - 38) =     26.32463  eV     1   --> A'             
     e( 39 - 39) =     26.75308  eV     1   --> A''            
     e( 40 - 40) =     26.87547  eV     1   --> A''            

 **************************************************************************

 **************************************************************************

                    xk=(   0.05102,   0.02946,   0.00000  )

     Band symmetry, C_s (m)     point group:

     e(  1 -  1) =    -44.23593  eV     1   --> A'             
     e(  2 -  2) =    -44.22542  eV     1   --> A''            
     e(  3 -  3) =    -20.64026  eV     1   --> A'             
     e(  4 -  4) =    -20.49185  eV     1   --> A''            
     e(  5 -  5) =    -20.42829  eV     1   --> A'             
     e(  6 -  6) =    -20.42462  eV     1   --> A'             
     e(  7 -  7) =    -20.41534  eV     1   --> A''            
     e(  8 -  8) =    -20.41201  eV     1   --> A''            
     e(  9 -  9) =     -2.41940  eV     1   --> A'             
     e( 10 - 10) =     -1.29075  eV     1   --> A'             
     e( 11 - 11) =      5.49504  eV     1   --> A''            
     e( 12 - 12) =      9.47928  eV     1   --> A'             
     e( 13 - 13) =      9.55902  eV     1   --> A'             
     e( 14 - 14) =      9.63041  eV     1   --> A''            
     e( 15 - 15) =     10.98415  eV     1   --> A'             
     e( 16 - 16) =     11.42817  eV     1   --> A'             
     e( 17 - 17) =     11.47890  eV     1   --> A'             
     e( 18 - 18) =     12.92808  eV     1   --> A''            
     e( 19 - 19) =     12.95007  eV     1   --> A''            
     e( 20 - 20) =     13.25318  eV     1   --> A'             
     e( 21 - 21) =     13.31536  eV     1   --> A'             
     e( 22 - 22) =     14.40781  eV     1   --> A''            
     e( 23 - 23) =     14.42760  eV     1   --> A''            
     e( 24 - 24) =     14.64727  eV     1   --> A''            
     e( 25 - 25) =     16.56804  eV     1   --> A'             
     e( 26 - 26) =     16.67479  eV     1   --> A'             
     e( 27 - 27) =     17.27451  eV     1   --> A'             
     e( 28 - 28) =     17.90907  eV     1   --> A'             
     e( 29 - 29) =     20.91566  eV     1   --> A'             
     e( 30 - 30) =     21.14727  eV     1   --> A'             
     e( 31 - 31) =     22.41017  eV     1   --> A'             
     e( 32 - 32) =     22.93854  eV     1   --> A''            
     e( 33 - 33) =     24.04505  eV     1   --> A'             
     e( 34 - 34) =     24.09592  eV     1   --> A''            
     e( 35 - 35) =     24.54927  eV     1   --> A'             
     e( 36 - 36) =     24.85733  eV     1   --> A''            
     e( 37 - 37) =     25.18937  eV     1   --> A''            
     e( 38 - 38) =     26.49349  eV     1   --> A'             
     e( 39 - 39) =     26.74884  eV     1   --> A''            
     e( 40 - 40) =     26.93851  eV     1   --> A''            

 **************************************************************************

 **************************************************************************

                    xk=(   0.06122,   0.03535,   0.00000  )

     Band symmetry, C_s (m)     point group:

     e(  1 -  1) =    -44.23572  eV     1   --> A'             
     e(  2 -  2) =    -44.22522  eV     1   --> A''            
     e(  3 -  3) =    -20.63975  eV     1   --> A'             
     e(  4 -  4) =    -20.49156  eV     1   --> A''            
     e(  5 -  5) =    -20.43035  eV     1   --> A'             
     e(  6 -  6) =    -20.42508  eV     1   --> A'             
     e(  7 -  7) =    -20.41722  eV     1   --> A''            
     e(  8 -  8) =    -20.41245  eV     1   --> A''            
     e(  9 -  9) =     -2.40420  eV     1   --> A'             
     e( 10 - 10) =     -1.28479  eV     1   --> A'             
     e( 11 - 11) =      5.51490  eV     1   --> A''            
     e( 12 - 12) =      9.44303  eV     1   --> A'             
     e( 13 - 13) =      9.55679  eV     1   --> A'             
     e( 14 - 14) =      9.60106  eV     1   --> A''            
     e( 15 - 15) =     10.92955  eV     1   --> A'             
     e( 16 - 16) =     11.38685  eV     1   --> A'             
     e( 17 - 17) =     11.43218  eV     1   --> A'             
     e( 18 - 18) =     12.94316  eV     1   --> A''            
     e( 19 - 19) =     12.97231  eV     1   --> A''            
     e( 20 - 20) =     13.27688  eV     1   --> A'             
     e( 21 - 21) =     13.36708  eV     1   --> A'             
     e( 22 - 22) =     14.40334  eV     1   --> A''            
     e( 23 - 23) =     14.43280  eV     1   --> A''            
     e( 24 - 24) =     14.65182  eV     1   --> A''            
     e( 25 - 25) =     16.51851  eV     1   --> A'             
     e( 26 - 26) =     16.66272  eV     1   --> A'             
     e( 27 - 27) =     17.34094  eV     1   --> A'             
     e( 28 - 28) =     17.99632  eV     1   --> A'             
     e( 29 - 29) =     20.88464  eV     1   --> A'             
     e( 30 - 30) =     21.20842  eV     1   --> A'             
     e( 31 - 31) =     22.44944  eV     1   --> A'             
     e( 32 - 32) =     22.81137  eV     1   --> A''            
     e( 33 - 33) =     23.90016  eV     1   --> A'             
     e( 34 - 34) =     24.05131  eV     1   --> A''            
     e( 35 - 35) =     24.56758  eV     1   --> A'             
     e( 36 - 36) =     24.80605  eV     1   --> A''            
     e( 37 - 37) =     25.26058  eV     1   --> A''            
     e( 38 - 38) =     26.67624  eV     1   --> A'             
     e( 39 - 39) =     26.74525  eV     1   --> A''            
     e( 40 - 40) =     27.01507  eV     1   --> A''            

 **************************************************************************

 **************************************************************************

                    xk=(   0.07143,   0.04124,   0.00000  )

     Band symmetry, C_s (m)     point group:

     e(  1 -  1) =    -44.23547  eV     1   --> A'             
     e(  2 -  2) =    -44.22498  eV     1   --> A''            
     e(  3 -  3) =    -20.63914  eV     1   --> A'             
     e(  4 -  4) =    -20.49123  eV     1   --> A''            
     e(  5 -  5) =    -20.43275  eV     1   --> A'             
     e(  6 -  6) =    -20.42562  eV     1   --> A'             
     e(  7 -  7) =    -20.41943  eV     1   --> A''            
     e(  8 -  8) =    -20.41297  eV     1   --> A''            
     e(  9 -  9) =     -2.38631  eV     1   --> A'             
     e( 10 - 10) =     -1.27778  eV     1   --> A'             
     e( 11 - 11) =      5.53828  eV     1   --> A''            
     e( 12 - 12) =      9.40093  eV     1   --> A'             
     e( 13 - 13) =      9.55405  eV     1   --> A'             
     e( 14 - 14) =      9.56741  eV     1   --> A''            
     e( 15 - 15) =     10.85132  eV     1   --> A'             
     e( 16 - 16) =     11.35842  eV     1   --> A'             
     e( 17 - 17) =     11.38086  eV     1   --> A'             
     e( 18 - 18) =     12.96089  eV     1   --> A''            
     e( 19 - 19) =     12.99659  eV     1   --> A''            
     e( 20 - 20) =     13.30112  eV     1   --> A'             
     e( 21 - 21) =     13.42416  eV     1   --> A'             
     e( 22 - 22) =     14.39817  eV     1   --> A''            
     e( 23 - 23) =     14.43984  eV     1   --> A''            
     e( 24 - 24) =     14.65737  eV     1   --> A''            
     e( 25 - 25) =     16.46533  eV     1   --> A'             
     e( 26 - 26) =     16.64943  eV     1   --> A'             
     e( 27 - 27) =     17.41657  eV     1   --> A'             
     e( 28 - 28) =     18.09194  eV     1   --> A'             
     e( 29 - 29) =     20.85328  eV     1   --> A'             
     e( 30 - 30) =     21.27976  eV     1   --> A'             
     e( 31 - 31) =     22.49168  eV     1   --> A'             
     e( 32 - 32) =     22.67542  eV     1   --> A''            
     e( 33 - 33) =     23.75233  eV     1   --> A'             
     e( 34 - 34) =     23.99635  eV     1   --> A''            
     e( 35 - 35) =     24.58925  eV     1   --> A'             
     e( 36 - 36) =     24.74568  eV     1   --> A''            
     e( 37 - 37) =     25.33385  eV     1   --> A''            
     e( 38 - 38) =     26.74301  eV     1   --> A''            
     e( 39 - 39) =     26.86906  eV     1   --> A'             
     e( 40 - 40) =     27.10426  eV     1   --> A''            

 **************************************************************************

 **************************************************************************

                    xk=(   0.08163,   0.04713,   0.00000  )

     Band symmetry, C_s (m)     point group:

     e(  1 -  1) =    -44.23519  eV     1   --> A'             
     e(  2 -  2) =    -44.22471  eV     1   --> A''            
     e(  3 -  3) =    -20.63844  eV     1   --> A'             
     e(  4 -  4) =    -20.49084  eV     1   --> A''            
     e(  5 -  5) =    -20.43550  eV     1   --> A'             
     e(  6 -  6) =    -20.42624  eV     1   --> A'             
     e(  7 -  7) =    -20.42195  eV     1   --> A''            
     e(  8 -  8) =    -20.41355  eV     1   --> A''            
     e(  9 -  9) =     -2.36576  eV     1   --> A'             
     e( 10 - 10) =     -1.26973  eV     1   --> A'             
     e( 11 - 11) =      5.56514  eV     1   --> A''            
     e( 12 - 12) =      9.35333  eV     1   --> A'             
     e( 13 - 13) =      9.52989  eV     1   --> A''            
     e( 14 - 14) =      9.55072  eV     1   --> A'             
     e( 15 - 15) =     10.75075  eV     1   --> A'             
     e( 16 - 16) =     11.32610  eV     1   --> A'             
     e( 17 - 17) =     11.34348  eV     1   --> A'             
     e( 18 - 18) =     12.98121  eV     1   --> A''            
     e( 19 - 19) =     13.02204  eV     1   --> A''            
     e( 20 - 20) =     13.32527  eV     1   --> A'             
     e( 21 - 21) =     13.48540  eV     1   --> A'             
     e( 22 - 22) =     14.39235  eV     1   --> A''            
     e( 23 - 23) =     14.44914  eV     1   --> A''            
     e( 24 - 24) =     14.66401  eV     1   --> A''            
     e( 25 - 25) =     16.40946  eV     1   --> A'             
     e( 26 - 26) =     16.63534  eV     1   --> A'             
     e( 27 - 27) =     17.50006  eV     1   --> A'             
     e( 28 - 28) =     18.19397  eV     1   --> A'             
     e( 29 - 29) =     20.82338  eV     1   --> A'             
     e( 30 - 30) =     21.36090  eV     1   --> A'             
     e( 31 - 31) =     22.53336  eV     1   --> A''            
     e( 32 - 32) =     22.53563  eV     1   --> A'             
     e( 33 - 33) =     23.60440  eV     1   --> A'             
     e( 34 - 34) =     23.93087  eV     1   --> A''            
     e( 35 - 35) =     24.61429  eV     1   --> A'             
     e( 36 - 36) =     24.67650  eV     1   --> A''            
     e( 37 - 37) =     25.40797  eV     1   --> A''            
     e( 38 - 38) =     26.74268  eV     1   --> A''            
     e( 39 - 39) =     27.06935  eV     1   --> A'             
     e( 40 - 40) =     27.20484  eV     1   --> A''            

 **************************************************************************

 **************************************************************************

                    xk=(   0.09184,   0.05302,   0.00000  )

     Band symmetry, C_s (m)     point group:

     e(  1 -  1) =    -44.23488  eV     1   --> A'             
     e(  2 -  2) =    -44.22441  eV     1   --> A''            
     e(  3 -  3) =    -20.63766  eV     1   --> A'             
     e(  4 -  4) =    -20.49041  eV     1   --> A''            
     e(  5 -  5) =    -20.43858  eV     1   --> A'             
     e(  6 -  6) =    -20.42693  eV     1   --> A'             
     e(  7 -  7) =    -20.42478  eV     1   --> A''            
     e(  8 -  8) =    -20.41421  eV     1   --> A''            
     e(  9 -  9) =     -2.34259  eV     1   --> A'             
     e( 10 - 10) =     -1.26066  eV     1   --> A'             
     e( 11 - 11) =      5.59541  eV     1   --> A''            
     e( 12 - 12) =      9.30058  eV     1   --> A'             
     e( 13 - 13) =      9.48893  eV     1   --> A''            
     e( 14 - 14) =      9.54675  eV     1   --> A'             
     e( 15 - 15) =     10.63200  eV     1   --> A'             
     e( 16 - 16) =     11.26890  eV     1   --> A'             
     e( 17 - 17) =     11.33944  eV     1   --> A'             
     e( 18 - 18) =     13.00406  eV     1   --> A''            
     e( 19 - 19) =     13.04769  eV     1   --> A''            
     e( 20 - 20) =     13.34893  eV     1   --> A'             
     e( 21 - 21) =     13.54971  eV     1   --> A'             
     e( 22 - 22) =     14.38594  eV     1   --> A''            
     e( 23 - 23) =     14.46113  eV     1   --> A''            
     e( 24 - 24) =     14.67185  eV     1   --> A''            
     e( 25 - 25) =     16.35164  eV     1   --> A'             
     e( 26 - 26) =     16.62088  eV     1   --> A'             
     e( 27 - 27) =     17.59001  eV     1   --> A'             
     e( 28 - 28) =     18.30053  eV     1   --> A'             
     e( 29 - 29) =     20.79666  eV     1   --> A'             
     e( 30 - 30) =     21.45142  eV     1   --> A'             
     e( 31 - 31) =     22.38723  eV     1   --> A''            
     e( 32 - 32) =     22.58000  eV     1   --> A'             
     e( 33 - 33) =     23.45864  eV     1   --> A'             
     e( 34 - 34) =     23.85482  eV     1   --> A''            
     e( 35 - 35) =     24.59888  eV     1   --> A''            
     e( 36 - 36) =     24.64272  eV     1   --> A'             
     e( 37 - 37) =     25.48246  eV     1   --> A''            
     e( 38 - 38) =     26.74477  eV     1   --> A''            
     e( 39 - 39) =     27.27516  eV     1   --> A'             
     e( 40 - 40) =     27.31503  eV     1   --> A''            

 **************************************************************************

 **************************************************************************

                    xk=(   0.10204,   0.05891,   0.00000  )

     Band symmetry, C_s (m)     point group:

     e(  1 -  1) =    -44.23453  eV     1   --> A'             
     e(  2 -  2) =    -44.22408  eV     1   --> A''            
     e(  3 -  3) =    -20.63681  eV     1   --> A'             
     e(  4 -  4) =    -20.48994  eV     1   --> A''            
     e(  5 -  5) =    -20.44198  eV     1   --> A'             
     e(  6 -  6) =    -20.42790  eV     1   --> A''            
     e(  7 -  7) =    -20.42770  eV     1   --> A'             
     e(  8 -  8) =    -20.41494  eV     1   --> A''            
     e(  9 -  9) =     -2.31683  eV     1   --> A'             
     e( 10 - 10) =     -1.25058  eV     1   --> A'             
     e( 11 - 11) =      5.62903  eV     1   --> A''            
     e( 12 - 12) =      9.24306  eV     1   --> A'             
     e( 13 - 13) =      9.44500  eV     1   --> A''            
     e( 14 - 14) =      9.54206  eV     1   --> A'             
     e( 15 - 15) =     10.49946  eV     1   --> A'             
     e( 16 - 16) =     11.21013  eV     1   --> A'             
     e( 17 - 17) =     11.34323  eV     1   --> A'             
     e( 18 - 18) =     13.02938  eV     1   --> A''            
     e( 19 - 19) =     13.07260  eV     1   --> A''            
     e( 20 - 20) =     13.37199  eV     1   --> A'             
     e( 21 - 21) =     13.61616  eV     1   --> A'             
     e( 22 - 22) =     14.37902  eV     1   --> A''            
     e( 23 - 23) =     14.47625  eV     1   --> A''            
     e( 24 - 24) =     14.68106  eV     1   --> A''            
     e( 25 - 25) =     16.29247  eV     1   --> A'             
     e( 26 - 26) =     16.60650  eV     1   --> A'             
     e( 27 - 27) =     17.68495  eV     1   --> A'             
     e( 28 - 28) =     18.40972  eV     1   --> A'             
     e( 29 - 29) =     20.77483  eV     1   --> A'             
     e( 30 - 30) =     21.55090  eV     1   --> A'             
     e( 31 - 31) =     22.23860  eV     1   --> A''            
     e( 32 - 32) =     22.62318  eV     1   --> A'             
     e( 33 - 33) =     23.31757  eV     1   --> A'             
     e( 34 - 34) =     23.76840  eV     1   --> A''            
     e( 35 - 35) =     24.51329  eV     1   --> A''            
     e( 36 - 36) =     24.67454  eV     1   --> A'             
     e( 37 - 37) =     25.55724  eV     1   --> A''            
     e( 38 - 38) =     26.74962  eV     1   --> A''            
     e( 39 - 39) =     27.43305  eV     1   --> A''            
     e( 40 - 40) =     27.48485  eV     1   --> A'             

 **************************************************************************

 **************************************************************************

                    xk=(   0.11224,   0.06480,   0.00000  )

     Band symmetry, C_s (m)     point group:

     e(  1 -  1) =    -44.23415  eV     1   --> A'             
     e(  2 -  2) =    -44.22371  eV     1   --> A''            
     e(  3 -  3) =    -20.63587  eV     1   --> A'             
     e(  4 -  4) =    -20.48941  eV     1   --> A''            
     e(  5 -  5) =    -20.44567  eV     1   --> A'             
     e(  6 -  6) =    -20.43130  eV     1   --> A''            
     e(  7 -  7) =    -20.42853  eV     1   --> A'             
     e(  8 -  8) =    -20.41573  eV     1   --> A''            
     e(  9 -  9) =     -2.28855  eV     1   --> A'             
     e( 10 - 10) =     -1.23953  eV     1   --> A'             
     e( 11 - 11) =      5.66592  eV     1   --> A''            
     e( 12 - 12) =      9.18117  eV     1   --> A'             
     e( 13 - 13) =      9.39852  eV     1   --> A''            
     e( 14 - 14) =      9.53657  eV     1   --> A'             
     e( 15 - 15) =     10.35664  eV     1   --> A'             
     e( 16 - 16) =     11.15054  eV     1   --> A'             
     e( 17 - 17) =     11.35246  eV     1   --> A'             
     e( 18 - 18) =     13.05708  eV     1   --> A''            
     e( 19 - 19) =     13.09578  eV     1   --> A''            
     e( 20 - 20) =     13.39447  eV     1   --> A'             
     e( 21 - 21) =     13.68390  eV     1   --> A'             
     e( 22 - 22) =     14.37166  eV     1   --> A''            
     e( 23 - 23) =     14.49484  eV     1   --> A''            
     e( 24 - 24) =     14.69185  eV     1   --> A''            
     e( 25 - 25) =     16.23242  eV     1   --> A'             
     e( 26 - 26) =     16.59263  eV     1   --> A'             
     e( 27 - 27) =     17.78342  eV     1   --> A'             
     e( 28 - 28) =     18.51953  eV     1   --> A'             
     e( 29 - 29) =     20.75959  eV     1   --> A'             
     e( 30 - 30) =     21.65893  eV     1   --> A'             
     e( 31 - 31) =     22.08876  eV     1   --> A''            
     e( 32 - 32) =     22.66232  eV     1   --> A'             
     e( 33 - 33) =     23.18479  eV     1   --> A'             
     e( 34 - 34) =     23.67197  eV     1   --> A''            
     e( 35 - 35) =     24.42031  eV     1   --> A''            
     e( 36 - 36) =     24.70978  eV     1   --> A'             
     e( 37 - 37) =     25.63252  eV     1   --> A''            
     e( 38 - 38) =     26.75744  eV     1   --> A''            
     e( 39 - 39) =     27.55699  eV     1   --> A''            
     e( 40 - 40) =     27.69674  eV     1   --> A'             

 **************************************************************************

 **************************************************************************

                    xk=(   0.12245,   0.07070,   0.00000  )

     Band symmetry, C_s (m)     point group:

     e(  1 -  1) =    -44.23374  eV     1   --> A'             
     e(  2 -  2) =    -44.22331  eV     1   --> A''            
     e(  3 -  3) =    -20.63486  eV     1   --> A'             
     e(  4 -  4) =    -20.48886  eV     1   --> A''            
     e(  5 -  5) =    -20.44965  eV     1   --> A'             
     e(  6 -  6) =    -20.43495  eV     1   --> A''            
     e(  7 -  7) =    -20.42943  eV     1   --> A'             
     e(  8 -  8) =    -20.41657  eV     1   --> A''            
     e(  9 -  9) =     -2.25779  eV     1   --> A'             
     e( 10 - 10) =     -1.22752  eV     1   --> A'             
     e( 11 - 11) =      5.70602  eV     1   --> A''            
     e( 12 - 12) =      9.11531  eV     1   --> A'             
     e( 13 - 13) =      9.34990  eV     1   --> A''            
     e( 14 - 14) =      9.53021  eV     1   --> A'             
     e( 15 - 15) =     10.20614  eV     1   --> A'             
     e( 16 - 16) =     11.09076  eV     1   --> A'             
     e( 17 - 17) =     11.36543  eV     1   --> A'             
     e( 18 - 18) =     13.08706  eV     1   --> A''            
     e( 19 - 19) =     13.11635  eV     1   --> A''            
     e( 20 - 20) =     13.41653  eV     1   --> A'             
     e( 21 - 21) =     13.75223  eV     1   --> A'             
     e( 22 - 22) =     14.36396  eV     1   --> A''            
     e( 23 - 23) =     14.51708  eV     1   --> A''            
     e( 24 - 24) =     14.70459  eV     1   --> A''            
     e( 25 - 25) =     16.17195  eV     1   --> A'             
     e( 26 - 26) =     16.57968  eV     1   --> A'             
     e( 27 - 27) =     17.88390  eV     1   --> A'             
     e( 28 - 28) =     18.62782  eV     1   --> A'             
     e( 29 - 29) =     20.75262  eV     1   --> A'             
     e( 30 - 30) =     21.77510  eV     1   --> A'             
     e( 31 - 31) =     21.93864  eV     1   --> A''            
     e( 32 - 32) =     22.69060  eV     1   --> A'             
     e( 33 - 33) =     23.06799  eV     1   --> A'             
     e( 34 - 34) =     23.56600  eV     1   --> A''            
     e( 35 - 35) =     24.32057  eV     1   --> A''            
     e( 36 - 36) =     24.74848  eV     1   --> A'             
     e( 37 - 37) =     25.70841  eV     1   --> A''            
     e( 38 - 38) =     26.76836  eV     1   --> A''            
     e( 39 - 39) =     27.68462  eV     1   --> A''            
     e( 40 - 40) =     27.90877  eV     1   --> A'             

 **************************************************************************

 **************************************************************************

                    xk=(   0.13265,   0.07659,   0.00000  )

     Band symmetry, C_s (m)     point group:

     e(  1 -  1) =    -44.23331  eV     1   --> A'             
     e(  2 -  2) =    -44.22289  eV     1   --> A''            
     e(  3 -  3) =    -20.63378  eV     1   --> A'             
     e(  4 -  4) =    -20.48826  eV     1   --> A''            
     e(  5 -  5) =    -20.45391  eV     1   --> A'             
     e(  6 -  6) =    -20.43886  eV     1   --> A''            
     e(  7 -  7) =    -20.43038  eV     1   --> A'             
     e(  8 -  8) =    -20.41748  eV     1   --> A''            
     e(  9 -  9) =     -2.22463  eV     1   --> A'             
     e( 10 - 10) =     -1.21459  eV     1   --> A'             
     e( 11 - 11) =      5.74923  eV     1   --> A''            
     e( 12 - 12) =      9.04585  eV     1   --> A'             
     e( 13 - 13) =      9.29956  eV     1   --> A''            
     e( 14 - 14) =      9.52288  eV     1   --> A'             
     e( 15 - 15) =     10.04991  eV     1   --> A'             
     e( 16 - 16) =     11.03136  eV     1   --> A'             
     e( 17 - 17) =     11.38095  eV     1   --> A'             
     e( 18 - 18) =     13.11921  eV     1   --> A''            
     e( 19 - 19) =     13.13351  eV     1   --> A''            
     e( 20 - 20) =     13.43843  eV     1   --> A'             
     e( 21 - 21) =     13.82050  eV     1   --> A'             
     e( 22 - 22) =     14.35602  eV     1   --> A''            
     e( 23 - 23) =     14.54287  eV     1   --> A''            
     e( 24 - 24) =     14.71978  eV     1   --> A''            
     e( 25 - 25) =     16.11144  eV     1   --> A'             
     e( 26 - 26) =     16.56806  eV     1   --> A'             
     e( 27 - 27) =     17.98489  eV     1   --> A'             
     e( 28 - 28) =     18.73233  eV     1   --> A'             
     e( 29 - 29) =     20.75557  eV     1   --> A'             
     e( 30 - 30) =     21.78907  eV     1   --> A''            
     e( 31 - 31) =     21.89899  eV     1   --> A'             
     e( 32 - 32) =     22.69052  eV     1   --> A'             
     e( 33 - 33) =     22.98564  eV     1   --> A'             
     e( 34 - 34) =     23.45113  eV     1   --> A''            
     e( 35 - 35) =     24.21468  eV     1   --> A''            
     e( 36 - 36) =     24.79053  eV     1   --> A'             
     e( 37 - 37) =     25.78509  eV     1   --> A''            
     e( 38 - 38) =     26.78236  eV     1   --> A''            
     e( 39 - 39) =     27.81405  eV     1   --> A''            
     e( 40 - 40) =     28.11785  eV     1   --> A'             

 **************************************************************************

 **************************************************************************

                    xk=(   0.14286,   0.08248,   0.00000  )

     Band symmetry, C_s (m)     point group:

     e(  1 -  1) =    -44.23285  eV     1   --> A'             
     e(  2 -  2) =    -44.22244  eV     1   --> A''            
     e(  3 -  3) =    -20.63264  eV     1   --> A'             
     e(  4 -  4) =    -20.48763  eV     1   --> A''            
     e(  5 -  5) =    -20.45842  eV     1   --> A'             
     e(  6 -  6) =    -20.44300  eV     1   --> A''            
     e(  7 -  7) =    -20.43140  eV     1   --> A'             
     e(  8 -  8) =    -20.41844  eV     1   --> A''            
     e(  9 -  9) =     -2.18913  eV     1   --> A'             
     e( 10 - 10) =     -1.20075  eV     1   --> A'             
     e( 11 - 11) =      5.79546  eV     1   --> A''            
     e( 12 - 12) =      8.97318  eV     1   --> A'             
     e( 13 - 13) =      9.24786  eV     1   --> A''            
     e( 14 - 14) =      9.51450  eV     1   --> A'             
     e( 15 - 15) =      9.88943  eV     1   --> A'             
     e( 16 - 16) =     10.97279  eV     1   --> A'             
     e( 17 - 17) =     11.39810  eV     1   --> A'             
     e( 18 - 18) =     13.14663  eV     1   --> A''            
     e( 19 - 19) =     13.15339  eV     1   --> A''            
     e( 20 - 20) =     13.46048  eV     1   --> A'             
     e( 21 - 21) =     13.88816  eV     1   --> A'             
     e( 22 - 22) =     14.34799  eV     1   --> A''            
     e( 23 - 23) =     14.57168  eV     1   --> A''            
     e( 24 - 24) =     14.73829  eV     1   --> A''            
     e( 25 - 25) =     16.05132  eV     1   --> A'             
     e( 26 - 26) =     16.55813  eV     1   --> A'             
     e( 27 - 27) =     18.08486  eV     1   --> A'             
     e( 28 - 28) =     18.83074  eV     1   --> A'             
     e( 29 - 29) =     20.77000  eV     1   --> A'             
     e( 30 - 30) =     21.64076  eV     1   --> A''            
     e( 31 - 31) =     22.03023  eV     1   --> A'             
     e( 32 - 32) =     22.64031  eV     1   --> A'             
     e( 33 - 33) =     22.96070  eV     1   --> A'             
     e( 34 - 34) =     23.32806  eV     1   --> A''            
     e( 35 - 35) =     24.10334  eV     1   --> A''            
     e( 36 - 36) =     24.83598  eV     1   --> A'             
     e( 37 - 37) =     25.86258  eV     1   --> A''            
     e( 38 - 38) =     26.79944  eV     1   --> A''            
     e( 39 - 39) =     27.94338  eV     1   --> A''            
     e( 40 - 40) =     28.31877  eV     1   --> A'             

 **************************************************************************

 **************************************************************************

                    xk=(   0.15306,   0.08837,   0.00000  )

     Band symmetry, C_s (m)     point group:

     e(  1 -  1) =    -44.23236  eV     1   --> A'             
     e(  2 -  2) =    -44.22197  eV     1   --> A''            
     e(  3 -  3) =    -20.63144  eV     1   --> A'             
     e(  4 -  4) =    -20.48696  eV     1   --> A''            
     e(  5 -  5) =    -20.46315  eV     1   --> A'             
     e(  6 -  6) =    -20.44735  eV     1   --> A''            
     e(  7 -  7) =    -20.43247  eV     1   --> A'             
     e(  8 -  8) =    -20.41946  eV     1   --> A''            
     e(  9 -  9) =     -2.15137  eV     1   --> A'             
     e( 10 - 10) =     -1.18605  eV     1   --> A'             
     e( 11 - 11) =      5.84459  eV     1   --> A''            
     e( 12 - 12) =      8.89762  eV     1   --> A'             
     e( 13 - 13) =      9.19517  eV     1   --> A''            
     e( 14 - 14) =      9.50499  eV     1   --> A'             
     e( 15 - 15) =      9.72595  eV     1   --> A'             
     e( 16 - 16) =     10.91546  eV     1   --> A'             
     e( 17 - 17) =     11.41619  eV     1   --> A'             
     e( 18 - 18) =     13.15523  eV     1   --> A''            
     e( 19 - 19) =     13.18946  eV     1   --> A''            
     e( 20 - 20) =     13.48306  eV     1   --> A'             
     e( 21 - 21) =     13.95474  eV     1   --> A'             
     e( 22 - 22) =     14.33998  eV     1   --> A''            
     e( 23 - 23) =     14.60236  eV     1   --> A''            
     e( 24 - 24) =     14.76137  eV     1   --> A''            
     e( 25 - 25) =     15.99195  eV     1   --> A'             
     e( 26 - 26) =     16.55022  eV     1   --> A'             
     e( 27 - 27) =     18.18232  eV     1   --> A'             
     e( 28 - 28) =     18.92080  eV     1   --> A'             
     e( 29 - 29) =     20.79725  eV     1   --> A'             
     e( 30 - 30) =     21.49426  eV     1   --> A''            
     e( 31 - 31) =     22.16847  eV     1   --> A'             
     e( 32 - 32) =     22.55255  eV     1   --> A'             
     e( 33 - 33) =     22.98189  eV     1   --> A'             
     e( 34 - 34) =     23.19755  eV     1   --> A''            
     e( 35 - 35) =     23.98722  eV     1   --> A''            
     e( 36 - 36) =     24.88483  eV     1   --> A'             
     e( 37 - 37) =     25.94081  eV     1   --> A''            
     e( 38 - 38) =     26.81940  eV     1   --> A''            
     e( 39 - 39) =     28.07074  eV     1   --> A''            
     e( 40 - 40) =     28.50235  eV     1   --> A'             

 **************************************************************************

 **************************************************************************

                    xk=(   0.16327,   0.09426,   0.00000  )

     Band symmetry, C_s (m)     point group:

     e(  1 -  1) =    -44.23184  eV     1   --> A'             
     e(  2 -  2) =    -44.22149  eV     1   --> A''            
     e(  3 -  3) =    -20.63018  eV     1   --> A'             
     e(  4 -  4) =    -20.48627  eV     1   --> A''            
     e(  5 -  5) =    -20.46809  eV     1   --> A'             
     e(  6 -  6) =    -20.45190  eV     1   --> A''            
     e(  7 -  7) =    -20.43358  eV     1   --> A'             
     e(  8 -  8) =    -20.42052  eV     1   --> A''            
     e(  9 -  9) =     -2.11143  eV     1   --> A'             
     e( 10 - 10) =     -1.17051  eV     1   --> A'             
     e( 11 - 11) =      5.89650  eV     1   --> A''            
     e( 12 - 12) =      8.81949  eV     1   --> A'             
     e( 13 - 13) =      9.14181  eV     1   --> A''            
     e( 14 - 14) =      9.49427  eV     1   --> A'             
     e( 15 - 15) =      9.56050  eV     1   --> A'             
     e( 16 - 16) =     10.85972  eV     1   --> A'             
     e( 17 - 17) =     11.43457  eV     1   --> A'             
     e( 18 - 18) =     13.15905  eV     1   --> A''            
     e( 19 - 19) =     13.22722  eV     1   --> A''            
     e( 20 - 20) =     13.50654  eV     1   --> A'             
     e( 21 - 21) =     14.01981  eV     1   --> A'             
     e( 22 - 22) =     14.33215  eV     1   --> A''            
     e( 23 - 23) =     14.63322  eV     1   --> A''            
     e( 24 - 24) =     14.79070  eV     1   --> A''            
     e( 25 - 25) =     15.93373  eV     1   --> A'             
     e( 26 - 26) =     16.54462  eV     1   --> A'             
     e( 27 - 27) =     18.27582  eV     1   --> A'             
     e( 28 - 28) =     19.00043  eV     1   --> A'             
     e( 29 - 29) =     20.83818  eV     1   --> A'             
     e( 30 - 30) =     21.35004  eV     1   --> A''            
     e( 31 - 31) =     22.31331  eV     1   --> A'             
     e( 32 - 32) =     22.45292  eV     1   --> A'             
     e( 33 - 33) =     23.02507  eV     1   --> A'             
     e( 34 - 34) =     23.06036  eV     1   --> A''            
     e( 35 - 35) =     23.86693  eV     1   --> A''            
     e( 36 - 36) =     24.93704  eV     1   --> A'             
     e( 37 - 37) =     26.01954  eV     1   --> A''            
     e( 38 - 38) =     26.84195  eV     1   --> A''            
     e( 39 - 39) =     28.19434  eV     1   --> A''            
     e( 40 - 40) =     28.65467  eV     1   --> A'             

 **************************************************************************

 **************************************************************************

                    xk=(   0.17347,   0.10015,   0.00000  )

     Band symmetry, C_s (m)     point group:

     e(  1 -  1) =    -44.23131  eV     1   --> A'             
     e(  2 -  2) =    -44.22098  eV     1   --> A''            
     e(  3 -  3) =    -20.62887  eV     1   --> A'             
     e(  4 -  4) =    -20.48555  eV     1   --> A''            
     e(  5 -  5) =    -20.47323  eV     1   --> A'             
     e(  6 -  6) =    -20.45662  eV     1   --> A''            
     e(  7 -  7) =    -20.43474  eV     1   --> A'             
     e(  8 -  8) =    -20.42163  eV     1   --> A''            
     e(  9 -  9) =     -2.06941  eV     1   --> A'             
     e( 10 - 10) =     -1.15418  eV     1   --> A'             
     e( 11 - 11) =      5.95106  eV     1   --> A''            
     e( 12 - 12) =      8.73901  eV     1   --> A'             
     e( 13 - 13) =      9.08808  eV     1   --> A''            
     e( 14 - 14) =      9.39402  eV     1   --> A'             
     e( 15 - 15) =      9.48226  eV     1   --> A'             
     e( 16 - 16) =     10.80586  eV     1   --> A'             
     e( 17 - 17) =     11.45272  eV     1   --> A'             
     e( 18 - 18) =     13.15800  eV     1   --> A''            
     e( 19 - 19) =     13.26649  eV     1   --> A''            
     e( 20 - 20) =     13.53134  eV     1   --> A'             
     e( 21 - 21) =     14.08300  eV     1   --> A'             
     e( 22 - 22) =     14.32469  eV     1   --> A''            
     e( 23 - 23) =     14.66244  eV     1   --> A''            
     e( 24 - 24) =     14.82789  eV     1   --> A''            
     e( 25 - 25) =     15.87701  eV     1   --> A'             
     e( 26 - 26) =     16.54156  eV     1   --> A'             
     e( 27 - 27) =     18.36401  eV     1   --> A'             
     e( 28 - 28) =     19.06798  eV     1   --> A'             
     e( 29 - 29) =     20.89312  eV     1   --> A'             
     e( 30 - 30) =     21.20855  eV     1   --> A''            
     e( 31 - 31) =     22.35360  eV     1   --> A'             
     e( 32 - 32) =     22.46450  eV     1   --> A'             
     e( 33 - 33) =     22.91729  eV     1   --> A''            
     e( 34 - 34) =     23.07970  eV     1   --> A'             
     e( 35 - 35) =     23.74312  eV     1   --> A''            
     e( 36 - 36) =     24.99257  eV     1   --> A'             
     e( 37 - 37) =     26.09850  eV     1   --> A''            
     e( 38 - 38) =     26.86697  eV     1   --> A''            
     e( 39 - 39) =     28.31250  eV     1   --> A''            
     e( 40 - 40) =     28.76417  eV     1   --> A'             

 **************************************************************************

 **************************************************************************

                    xk=(   0.18367,   0.10604,   0.00000  )

     Band symmetry, C_s (m)     point group:

     e(  1 -  1) =    -44.23077  eV     1   --> A'             
     e(  2 -  2) =    -44.22046  eV     1   --> A''            
     e(  3 -  3) =    -20.62752  eV     1   --> A'             
     e(  4 -  4) =    -20.48481  eV     1   --> A''            
     e(  5 -  5) =    -20.47854  eV     1   --> A'             
     e(  6 -  6) =    -20.46149  eV     1   --> A''            
     e(  7 -  7) =    -20.43594  eV     1   --> A'             
     e(  8 -  8) =    -20.42277  eV     1   --> A''            
     e(  9 -  9) =     -2.02541  eV     1   --> A'             
     e( 10 - 10) =     -1.13708  eV     1   --> A'             
     e( 11 - 11) =      6.00814  eV     1   --> A''            
     e( 12 - 12) =      8.65631  eV     1   --> A'             
     e( 13 - 13) =      9.03428  eV     1   --> A''            
     e( 14 - 14) =      9.22744  eV     1   --> A'             
     e( 15 - 15) =      9.46892  eV     1   --> A'             
     e( 16 - 16) =     10.75413  eV     1   --> A'             
     e( 17 - 17) =     11.47011  eV     1   --> A'             
     e( 18 - 18) =     13.15213  eV     1   --> A''            
     e( 19 - 19) =     13.30702  eV     1   --> A''            
     e( 20 - 20) =     13.55786  eV     1   --> A'             
     e( 21 - 21) =     14.14402  eV     1   --> A'             
     e( 22 - 22) =     14.31783  eV     1   --> A''            
     e( 23 - 23) =     14.68894  eV     1   --> A''            
     e( 24 - 24) =     14.87368  eV     1   --> A''            
     e( 25 - 25) =     15.82217  eV     1   --> A'             
     e( 26 - 26) =     16.54124  eV     1   --> A'             
     e( 27 - 27) =     18.44573  eV     1   --> A'             
     e( 28 - 28) =     19.12226  eV     1   --> A'             
     e( 29 - 29) =     20.96157  eV     1   --> A'             
     e( 30 - 30) =     21.07016  eV     1   --> A''            
     e( 31 - 31) =     22.25951  eV     1   --> A'             
     e( 32 - 32) =     22.62172  eV     1   --> A'             
     e( 33 - 33) =     22.76912  eV     1   --> A''            
     e( 34 - 34) =     23.14266  eV     1   --> A'             
     e( 35 - 35) =     23.61638  eV     1   --> A''            
     e( 36 - 36) =     25.05138  eV     1   --> A'             
     e( 37 - 37) =     26.17729  eV     1   --> A''            
     e( 38 - 38) =     26.89423  eV     1   --> A''            
     e( 39 - 39) =     28.42357  eV     1   --> A''            
     e( 40 - 40) =     28.83319  eV     1   --> A'             

 **************************************************************************

 **************************************************************************

                    xk=(   0.19388,   0.11194,   0.00000  )

     Band symmetry, C_s (m)     point group:

     e(  1 -  1) =    -44.23021  eV     1   --> A'             
     e(  2 -  2) =    -44.21992  eV     1   --> A''            
     e(  3 -  3) =    -20.62613  eV     1   --> A'             
     e(  4 -  5) =    -20.48406  eV     2   --> A'             
     e(  4 -  5) =    -20.48406  eV     2   --> A''            
     e(  6 -  6) =    -20.46650  eV     1   --> A''            
     e(  7 -  7) =    -20.43718  eV     1   --> A'             
     e(  8 -  8) =    -20.42395  eV     1   --> A''            
     e(  9 -  9) =     -1.97955  eV     1   --> A'             
     e( 10 - 10) =     -1.11926  eV     1   --> A'             
     e( 11 - 11) =      6.06760  eV     1   --> A''            
     e( 12 - 12) =      8.57135  eV     1   --> A'             
     e( 13 - 13) =      8.98066  eV     1   --> A''            
     e( 14 - 14) =      9.06173  eV     1   --> A'             
     e( 15 - 15) =      9.45419  eV     1   --> A'             
     e( 16 - 16) =     10.70473  eV     1   --> A'             
     e( 17 - 17) =     11.48629  eV     1   --> A'             
     e( 18 - 18) =     13.14163  eV     1   --> A''            
     e( 19 - 19) =     13.34851  eV     1   --> A''            
     e( 20 - 20) =     13.58653  eV     1   --> A'             
     e( 21 - 21) =     14.20260  eV     1   --> A'             
     e( 22 - 22) =     14.31179  eV     1   --> A''            
     e( 23 - 23) =     14.71270  eV     1   --> A''            
     e( 24 - 24) =     14.92765  eV     1   --> A''            
     e( 25 - 25) =     15.76952  eV     1   --> A'             
     e( 26 - 26) =     16.54377  eV     1   --> A'             
     e( 27 - 27) =     18.52004  eV     1   --> A'             
     e( 28 - 28) =     19.16265  eV     1   --> A'             
     e( 29 - 29) =     20.93522  eV     1   --> A''            
     e( 30 - 30) =     21.04222  eV     1   --> A'             
     e( 31 - 31) =     22.17305  eV     1   --> A'             
     e( 32 - 32) =     22.61661  eV     1   --> A''            
     e( 33 - 33) =     22.78465  eV     1   --> A'             
     e( 34 - 34) =     23.21341  eV     1   --> A'             
     e( 35 - 35) =     23.48728  eV     1   --> A''            
     e( 36 - 36) =     25.11335  eV     1   --> A'             
     e( 37 - 37) =     26.25545  eV     1   --> A''            
     e( 38 - 38) =     26.92352  eV     1   --> A''            
     e( 39 - 39) =     28.52605  eV     1   --> A''            
     e( 40 - 40) =     28.87340  eV     1   --> A'             

 **************************************************************************

 **************************************************************************

                    xk=(   0.20408,   0.11783,   0.00000  )

     Band symmetry, C_s (m)     point group:

     e(  1 -  1) =    -44.22962  eV     1   --> A'             
     e(  2 -  2) =    -44.21936  eV     1   --> A''            
     e(  3 -  3) =    -20.62470  eV     1   --> A'             
     e(  4 -  4) =    -20.48956  eV     1   --> A'             
     e(  5 -  5) =    -20.48330  eV     1   --> A''            
     e(  6 -  6) =    -20.47160  eV     1   --> A''            
     e(  7 -  7) =    -20.43844  eV     1   --> A'             
     e(  8 -  8) =    -20.42515  eV     1   --> A''            
     e(  9 -  9) =     -1.93192  eV     1   --> A'             
     e( 10 - 10) =     -1.10077  eV     1   --> A'             
     e( 11 - 11) =      6.12923  eV     1   --> A''            
     e( 12 - 12) =      8.48378  eV     1   --> A'             
     e( 13 - 13) =      8.89814  eV     1   --> A'             
     e( 14 - 14) =      8.92748  eV     1   --> A''            
     e( 15 - 15) =      9.43807  eV     1   --> A'             
     e( 16 - 16) =     10.65784  eV     1   --> A'             
     e( 17 - 17) =     11.50082  eV     1   --> A'             
     e( 18 - 18) =     13.12678  eV     1   --> A''            
     e( 19 - 19) =     13.39065  eV     1   --> A''            
     e( 20 - 20) =     13.61774  eV     1   --> A'             
     e( 21 - 21) =     14.25858  eV     1   --> A'             
     e( 22 - 22) =     14.30687  eV     1   --> A''            
     e( 23 - 23) =     14.73435  eV     1   --> A''            
     e( 24 - 24) =     14.98860  eV     1   --> A''            
     e( 25 - 25) =     15.71938  eV     1   --> A'             
     e( 26 - 26) =     16.54923  eV     1   --> A'             
     e( 27 - 27) =     18.58636  eV     1   --> A'             
     e( 28 - 28) =     19.18894  eV     1   --> A'             
     e( 29 - 29) =     20.80403  eV     1   --> A''            
     e( 30 - 30) =     21.13286  eV     1   --> A'             
     e( 31 - 31) =     22.09589  eV     1   --> A'             
     e( 32 - 32) =     22.46051  eV     1   --> A''            
     e( 33 - 33) =     22.95306  eV     1   --> A'             
     e( 34 - 34) =     23.29235  eV     1   --> A'             
     e( 35 - 35) =     23.35630  eV     1   --> A''            
     e( 36 - 36) =     25.17848  eV     1   --> A'             
     e( 37 - 37) =     26.33249  eV     1   --> A''            
     e( 38 - 38) =     26.95455  eV     1   --> A''            
     e( 39 - 39) =     28.61854  eV     1   --> A''            
     e( 40 - 40) =     28.89419  eV     1   --> A'             

 **************************************************************************

 **************************************************************************

                    xk=(   0.21429,   0.12372,   0.00000  )

     Band symmetry, C_s (m)     point group:

     e(  1 -  1) =    -44.22903  eV     1   --> A'             
     e(  2 -  2) =    -44.21880  eV     1   --> A''            
     e(  3 -  3) =    -20.62326  eV     1   --> A'             
     e(  4 -  4) =    -20.49523  eV     1   --> A'             
     e(  5 -  5) =    -20.48261  eV     1   --> A''            
     e(  6 -  6) =    -20.47671  eV     1   --> A''            
     e(  7 -  7) =    -20.43973  eV     1   --> A'             
     e(  8 -  8) =    -20.42637  eV     1   --> A''            
     e(  9 -  9) =     -1.88269  eV     1   --> A'             
     e( 10 - 10) =     -1.08164  eV     1   --> A'             
     e( 11 - 11) =      6.19288  eV     1   --> A''            
     e( 12 - 12) =      8.39271  eV     1   --> A'             
     e( 13 - 13) =      8.73834  eV     1   --> A'             
     e( 14 - 14) =      8.87497  eV     1   --> A''            
     e( 15 - 15) =      9.42056  eV     1   --> A'             
     e( 16 - 16) =     10.61355  eV     1   --> A'             
     e( 17 - 17) =     11.51332  eV     1   --> A'             
     e( 18 - 18) =     13.10790  eV     1   --> A''            
     e( 19 - 19) =     13.43304  eV     1   --> A''            
     e( 20 - 20) =     13.65186  eV     1   --> A'             
     e( 21 - 21) =     14.30342  eV     1   --> A''            
     e( 22 - 22) =     14.31179  eV     1   --> A'             
     e( 23 - 23) =     14.75463  eV     1   --> A''            
     e( 24 - 24) =     15.05523  eV     1   --> A''            
     e( 25 - 25) =     15.67199  eV     1   --> A'             
     e( 26 - 26) =     16.55764  eV     1   --> A'             
     e( 27 - 27) =     18.64433  eV     1   --> A'             
     e( 28 - 28) =     19.20129  eV     1   --> A'             
     e( 29 - 29) =     20.67685  eV     1   --> A''            
     e( 30 - 30) =     21.23038  eV     1   --> A'             
     e( 31 - 31) =     22.02953  eV     1   --> A'             
     e( 32 - 32) =     22.30154  eV     1   --> A''            
     e( 33 - 33) =     23.12668  eV     1   --> A'             
     e( 34 - 34) =     23.22397  eV     1   --> A''            
     e( 35 - 35) =     23.38017  eV     1   --> A'             
     e( 36 - 36) =     25.24659  eV     1   --> A'             
     e( 37 - 37) =     26.40787  eV     1   --> A''            
     e( 38 - 38) =     26.98710  eV     1   --> A''            
     e( 39 - 39) =     28.69984  eV     1   --> A''            
     e( 40 - 40) =     28.90126  eV     1   --> A'             

 **************************************************************************

 **************************************************************************

                    xk=(   0.22449,   0.12961,   0.00000  )

     Band symmetry, C_s (m)     point group:

     e(  1 -  1) =    -44.22845  eV     1   --> A'             
     e(  2 -  2) =    -44.21822  eV     1   --> A''            
     e(  3 -  3) =    -20.62179  eV     1   --> A'             
     e(  4 -  4) =    -20.50099  eV     1   --> A'             
     e(  5 -  5) =    -20.48308  eV     1   --> A''            
     e(  6 -  6) =    -20.48073  eV     1   --> A''            
     e(  7 -  7) =    -20.44104  eV     1   --> A'             
     e(  8 -  8) =    -20.42762  eV     1   --> A''            
     e(  9 -  9) =     -1.83200  eV     1   --> A'             
     e( 10 - 10) =     -1.06191  eV     1   --> A'             
     e( 11 - 11) =      6.25835  eV     1   --> A''            
     e( 12 - 12) =      8.29630  eV     1   --> A'             
     e( 13 - 13) =      8.58493  eV     1   --> A'             
     e( 14 - 14) =      8.82334  eV     1   --> A''            
     e( 15 - 15) =      9.40170  eV     1   --> A'             
     e( 16 - 16) =     10.57194  eV     1   --> A'             
     e( 17 - 17) =     11.52343  eV     1   --> A'             
     e( 18 - 18) =     13.08533  eV     1   --> A''            
     e( 19 - 19) =     13.47521  eV     1   --> A''            
     e( 20 - 20) =     13.68925  eV     1   --> A'             
     e( 21 - 21) =     14.30182  eV     1   --> A''            
     e( 22 - 22) =     14.36214  eV     1   --> A'             
     e( 23 - 23) =     14.77409  eV     1   --> A''            
     e( 24 - 24) =     15.12640  eV     1   --> A''            
     e( 25 - 25) =     15.62761  eV     1   --> A'             
     e( 26 - 26) =     16.56895  eV     1   --> A'             
     e( 27 - 27) =     18.69401  eV     1   --> A'             
     e( 28 - 28) =     19.20016  eV     1   --> A'             
     e( 29 - 29) =     20.55393  eV     1   --> A''            
     e( 30 - 30) =     21.33018  eV     1   --> A'             
     e( 31 - 31) =     21.97635  eV     1   --> A'             
     e( 32 - 32) =     22.14038  eV     1   --> A''            
     e( 33 - 33) =     23.09074  eV     1   --> A''            
     e( 34 - 34) =     23.30525  eV     1   --> A'             
     e( 35 - 35) =     23.47767  eV     1   --> A'             
     e( 36 - 36) =     25.31751  eV     1   --> A'             
     e( 37 - 37) =     26.48104  eV     1   --> A''            
     e( 38 - 38) =     27.02092  eV     1   --> A''            
     e( 39 - 39) =     28.76897  eV     1   --> A''            
     e( 40 - 40) =     28.89789  eV     1   --> A'             

 **************************************************************************

 **************************************************************************

                    xk=(   0.23469,   0.13550,   0.00000  )

     Band symmetry, C_s (m)     point group:

     e(  1 -  1) =    -44.22786  eV     1   --> A'             
     e(  2 -  2) =    -44.21764  eV     1   --> A''            
     e(  3 -  3) =    -20.62031  eV     1   --> A'             
     e(  4 -  4) =    -20.50681  eV     1   --> A'             
     e(  5 -  5) =    -20.48777  eV     1   --> A''            
     e(  6 -  6) =    -20.48057  eV     1   --> A''            
     e(  7 -  7) =    -20.44236  eV     1   --> A'             
     e(  8 -  8) =    -20.42887  eV     1   --> A''            
     e(  9 -  9) =     -1.77999  eV     1   --> A'             
     e( 10 - 10) =     -1.04164  eV     1   --> A'             
     e( 11 - 11) =      6.32541  eV     1   --> A''            
     e( 12 - 12) =      8.19136  eV     1   --> A'             
     e( 13 - 13) =      8.44177  eV     1   --> A'             
     e( 14 - 14) =      8.77280  eV     1   --> A''            
     e( 15 - 15) =      9.38155  eV     1   --> A'             
     e( 16 - 16) =     10.53306  eV     1   --> A'             
     e( 17 - 17) =     11.53091  eV     1   --> A'             
     e( 18 - 18) =     13.05942  eV     1   --> A''            
     e( 19 - 19) =     13.51664  eV     1   --> A''            
     e( 20 - 20) =     13.73018  eV     1   --> A'             
     e( 21 - 21) =     14.30253  eV     1   --> A''            
     e( 22 - 22) =     14.40960  eV     1   --> A'             
     e( 23 - 23) =     14.79311  eV     1   --> A''            
     e( 24 - 24) =     15.20112  eV     1   --> A''            
     e( 25 - 25) =     15.58642  eV     1   --> A'             
     e( 26 - 26) =     16.58304  eV     1   --> A'             
     e( 27 - 27) =     18.73561  eV     1   --> A'             
     e( 28 - 28) =     19.18628  eV     1   --> A'             
     e( 29 - 29) =     20.43547  eV     1   --> A''            
     e( 30 - 30) =     21.42477  eV     1   --> A'             
     e( 31 - 31) =     21.94123  eV     1   --> A'             
     e( 32 - 32) =     21.97769  eV     1   --> A''            
     e( 33 - 33) =     22.95704  eV     1   --> A''            
     e( 34 - 34) =     23.48854  eV     1   --> A'             
     e( 35 - 35) =     23.58553  eV     1   --> A'             
     e( 36 - 36) =     25.39113  eV     1   --> A'             
     e( 37 - 37) =     26.55144  eV     1   --> A''            
     e( 38 - 38) =     27.05579  eV     1   --> A''            
     e( 39 - 39) =     28.82526  eV     1   --> A''            
     e( 40 - 40) =     28.88632  eV     1   --> A'             

 **************************************************************************

 **************************************************************************

                    xk=(   0.24490,   0.14139,   0.00000  )

     Band symmetry, C_s (m)     point group:

     e(  1 -  1) =    -44.22725  eV     1   --> A'             
     e(  2 -  2) =    -44.21706  eV     1   --> A''            
     e(  3 -  3) =    -20.61882  eV     1   --> A'             
     e(  4 -  4) =    -20.51264  eV     1   --> A'             
     e(  5 -  5) =    -20.49308  eV     1   --> A''            
     e(  6 -  6) =    -20.47982  eV     1   --> A''            
     e(  7 -  7) =    -20.44368  eV     1   --> A'             
     e(  8 -  8) =    -20.43013  eV     1   --> A''            
     e(  9 -  9) =     -1.72685  eV     1   --> A'             
     e( 10 - 10) =     -1.02085  eV     1   --> A'             
     e( 11 - 11) =      6.39385  eV     1   --> A''            
     e( 12 - 12) =      8.07433  eV     1   --> A'             
     e( 13 - 13) =      8.31316  eV     1   --> A'             
     e( 14 - 14) =      8.72355  eV     1   --> A''            
     e( 15 - 15) =      9.36021  eV     1   --> A'             
     e( 16 - 16) =     10.49688  eV     1   --> A'             
     e( 17 - 17) =     11.53555  eV     1   --> A'             
     e( 18 - 18) =     13.03053  eV     1   --> A''            
     e( 19 - 19) =     13.55672  eV     1   --> A''            
     e( 20 - 20) =     13.77493  eV     1   --> A'             
     e( 21 - 21) =     14.30605  eV     1   --> A''            
     e( 22 - 22) =     14.45419  eV     1   --> A'             
     e( 23 - 23) =     14.81190  eV     1   --> A''            
     e( 24 - 24) =     15.27860  eV     1   --> A''            
     e( 25 - 25) =     15.54856  eV     1   --> A'             
     e( 26 - 26) =     16.59977  eV     1   --> A'             
     e( 27 - 27) =     18.76939  eV     1   --> A'             
     e( 28 - 28) =     19.16086  eV     1   --> A'             
     e( 29 - 29) =     20.32167  eV     1   --> A''            
     e( 30 - 30) =     21.50133  eV     1   --> A'             
     e( 31 - 31) =     21.81415  eV     1   --> A''            
     e( 32 - 32) =     21.93423  eV     1   --> A'             
     e( 33 - 33) =     22.82330  eV     1   --> A''            
     e( 34 - 34) =     23.67634  eV     1   --> A'             
     e( 35 - 35) =     23.70421  eV     1   --> A'             
     e( 36 - 36) =     25.46721  eV     1   --> A'             
     e( 37 - 37) =     26.61851  eV     1   --> A''            
     e( 38 - 38) =     27.09145  eV     1   --> A''            
     e( 39 - 40) =     28.86849  eV     2   --> A'             
     e( 39 - 40) =     28.86849  eV     2   --> A''            

 **************************************************************************

 **************************************************************************

                    xk=(   0.25510,   0.14728,   0.00000  )

     Band symmetry, C_s (m)     point group:

     e(  1 -  1) =    -44.22665  eV     1   --> A'             
     e(  2 -  2) =    -44.21647  eV     1   --> A''            
     e(  3 -  3) =    -20.61733  eV     1   --> A'             
     e(  4 -  4) =    -20.51847  eV     1   --> A'             
     e(  5 -  5) =    -20.49843  eV     1   --> A''            
     e(  6 -  6) =    -20.47902  eV     1   --> A''            
     e(  7 -  7) =    -20.44501  eV     1   --> A'             
     e(  8 -  8) =    -20.43140  eV     1   --> A''            
     e(  9 -  9) =     -1.67276  eV     1   --> A'             
     e( 10 - 10) =     -0.99959  eV     1   --> A'             
     e( 11 - 11) =      6.46342  eV     1   --> A''            
     e( 12 - 12) =      7.94432  eV     1   --> A'             
     e( 13 - 13) =      8.20057  eV     1   --> A'             
     e( 14 - 14) =      8.67577  eV     1   --> A''            
     e( 15 - 15) =      9.33780  eV     1   --> A'             
     e( 16 - 16) =     10.46337  eV     1   --> A'             
     e( 17 - 17) =     11.53721  eV     1   --> A'             
     e( 18 - 18) =     12.99899  eV     1   --> A''            
     e( 19 - 19) =     13.59483  eV     1   --> A''            
     e( 20 - 20) =     13.82366  eV     1   --> A'             
     e( 21 - 21) =     14.31293  eV     1   --> A''            
     e( 22 - 22) =     14.49594  eV     1   --> A'             
     e( 23 - 23) =     14.83062  eV     1   --> A''            
     e( 24 - 24) =     15.35814  eV     1   --> A''            
     e( 25 - 25) =     15.51414  eV     1   --> A'             
     e( 26 - 26) =     16.61891  eV     1   --> A'             
     e( 27 - 27) =     18.79521  eV     1   --> A'             
     e( 28 - 28) =     19.12577  eV     1   --> A'             
     e( 29 - 29) =     20.21270  eV     1   --> A''            
     e( 30 - 30) =     21.54399  eV     1   --> A'             
     e( 31 - 31) =     21.65038  eV     1   --> A''            
     e( 32 - 32) =     21.96835  eV     1   --> A'             
     e( 33 - 33) =     22.68994  eV     1   --> A''            
     e( 34 - 34) =     23.83389  eV     1   --> A'             
     e( 35 - 35) =     23.86843  eV     1   --> A'             
     e( 36 - 36) =     25.54556  eV     1   --> A'             
     e( 37 - 37) =     26.68174  eV     1   --> A''            
     e( 38 - 38) =     27.12768  eV     1   --> A''            
     e( 39 - 39) =     28.84664  eV     1   --> A'             
     e( 40 - 40) =     28.89880  eV     1   --> A''            

 **************************************************************************

 **************************************************************************

                    xk=(   0.26531,   0.15317,   0.00000  )

     Band symmetry, C_s (m)     point group:

     e(  1 -  1) =    -44.22604  eV     1   --> A'             
     e(  2 -  2) =    -44.21589  eV     1   --> A''            
     e(  3 -  3) =    -20.61585  eV     1   --> A'             
     e(  4 -  4) =    -20.52428  eV     1   --> A'             
     e(  5 -  5) =    -20.50378  eV     1   --> A''            
     e(  6 -  6) =    -20.47820  eV     1   --> A''            
     e(  7 -  7) =    -20.44634  eV     1   --> A'             
     e(  8 -  8) =    -20.43266  eV     1   --> A''            
     e(  9 -  9) =     -1.61794  eV     1   --> A'             
     e( 10 - 10) =     -0.97790  eV     1   --> A'             
     e( 11 - 11) =      6.53380  eV     1   --> A''            
     e( 12 - 12) =      7.80475  eV     1   --> A'             
     e( 13 - 13) =      8.10121  eV     1   --> A'             
     e( 14 - 14) =      8.62966  eV     1   --> A''            
     e( 15 - 15) =      9.31448  eV     1   --> A'             
     e( 16 - 16) =     10.43245  eV     1   --> A'             
     e( 17 - 17) =     11.53586  eV     1   --> A'             
     e( 18 - 18) =     12.96512  eV     1   --> A''            
     e( 19 - 19) =     13.63028  eV     1   --> A''            
     e( 20 - 20) =     13.87648  eV     1   --> A'             
     e( 21 - 21) =     14.32372  eV     1   --> A''            
     e( 22 - 22) =     14.53494  eV     1   --> A'             
     e( 23 - 23) =     14.84931  eV     1   --> A''            
     e( 24 - 24) =     15.43913  eV     1   --> A''            
     e( 25 - 25) =     15.48321  eV     1   --> A'             
     e( 26 - 26) =     16.64024  eV     1   --> A'             
     e( 27 - 27) =     18.81190  eV     1   --> A'             
     e( 28 - 28) =     19.08420  eV     1   --> A'             
     e( 29 - 29) =     20.10862  eV     1   --> A''            
     e( 30 - 30) =     21.48697  eV     1   --> A''            
     e( 31 - 31) =     21.54909  eV     1   --> A'             
     e( 32 - 32) =     22.04447  eV     1   --> A'             
     e( 33 - 33) =     22.55731  eV     1   --> A''            
     e( 34 - 34) =     23.97439  eV     1   --> A'             
     e( 35 - 35) =     24.06458  eV     1   --> A'             
     e( 36 - 36) =     25.62581  eV     1   --> A'             
     e( 37 - 37) =     26.74058  eV     1   --> A''            
     e( 38 - 38) =     27.16429  eV     1   --> A''            
     e( 39 - 39) =     28.82265  eV     1   --> A'             
     e( 40 - 40) =     28.91664  eV     1   --> A''            

 **************************************************************************

 **************************************************************************

                    xk=(   0.27551,   0.15907,   0.00000  )

     Band symmetry, C_s (m)     point group:

[...]
     e( 31 - 31) =     22.33686  eV     1   --> A              
     e( 32 - 32) =     22.33701  eV     1   --> A              
     e( 33 - 33) =     23.21204  eV     1   --> A              
     e( 34 - 34) =     23.45746  eV     1   --> A              
     e( 35 - 35) =     25.13968  eV     1   --> A              
     e( 36 - 36) =     25.14100  eV     1   --> A              
     e( 37 - 37) =     26.80816  eV     1   --> A              
     e( 38 - 38) =     26.80951  eV     1   --> A              
     e( 39 - 39) =     30.74954  eV     1   --> A              
     e( 40 - 40) =     30.74998  eV     1   --> A              

 **************************************************************************

 **************************************************************************

                    xk=(   0.33330,   0.57729,   0.20954  )

     Band symmetry, C_1 (1)     point group:

     e(  1 -  1) =    -44.21147  eV     1   --> A              
     e(  2 -  2) =    -44.20899  eV     1   --> A              
     e(  3 -  5) =    -20.54221  eV     3   -->   3 A              
     e(  6 -  7) =    -20.53561  eV     2   -->   2 A              
     e(  8 -  8) =    -20.51041  eV     1   --> A              
     e(  9 - 10) =     -0.47681  eV     2   -->   2 A              
     e( 11 - 12) =      7.00814  eV     2   -->   2 A              
     e( 13 - 13) =      7.21990  eV     1   --> A              
     e( 14 - 14) =      7.61971  eV     1   --> A              
     e( 15 - 16) =      8.04402  eV     2   -->   2 A              
     e( 17 - 18) =     12.74577  eV     2   -->   2 A              
     e( 19 - 19) =     14.49819  eV     1   --> A              
     e( 20 - 20) =     14.57643  eV     1   --> A              
     e( 21 - 21) =     14.57661  eV     1   --> A              
     e( 22 - 22) =     14.70709  eV     1   --> A              
     e( 23 - 23) =     15.01086  eV     1   --> A              
     e( 24 - 24) =     15.01117  eV     1   --> A              
     e( 25 - 25) =     17.04596  eV     1   --> A              
     e( 26 - 26) =     17.04616  eV     1   --> A              
     e( 27 - 27) =     18.77181  eV     1   --> A              
     e( 28 - 28) =     19.03095  eV     1   --> A              
     e( 29 - 29) =     19.03129  eV     1   --> A              
     e( 30 - 30) =     19.93544  eV     1   --> A              
     e( 31 - 31) =     22.34275  eV     1   --> A              
     e( 32 - 32) =     22.34288  eV     1   --> A              
     e( 33 - 33) =     23.22764  eV     1   --> A              
     e( 34 - 34) =     23.44691  eV     1   --> A              
     e( 35 - 35) =     25.18954  eV     1   --> A              
     e( 36 - 36) =     25.19080  eV     1   --> A              
     e( 37 - 37) =     26.76765  eV     1   --> A              
     e( 38 - 38) =     26.76892  eV     1   --> A              
     e( 39 - 39) =     30.73872  eV     1   --> A              
     e( 40 - 40) =     30.73911  eV     1   --> A              

 **************************************************************************

 **************************************************************************

                    xk=(   0.33330,   0.57729,   0.21465  )

     Band symmetry, C_1 (1)     point group:

     e(  1 -  1) =    -44.21133  eV     1   --> A              
     e(  2 -  2) =    -44.20914  eV     1   --> A              
     e(  3 -  4) =    -20.54187  eV     2   -->   2 A              
     e(  5 -  5) =    -20.54026  eV     1   --> A              
     e(  6 -  7) =    -20.53588  eV     2   -->   2 A              
     e(  8 -  8) =    -20.51237  eV     1   --> A              
     e(  9 - 10) =     -0.47679  eV     2   -->   2 A              
     e( 11 - 12) =      7.00779  eV     2   -->   2 A              
     e( 13 - 13) =      7.24331  eV     1   --> A              
     e( 14 - 14) =      7.59395  eV     1   --> A              
     e( 15 - 16) =      8.04462  eV     2   -->   2 A              
     e( 17 - 18) =     12.74189  eV     2   -->   2 A              
     e( 19 - 19) =     14.51057  eV     1   --> A              
     e( 20 - 20) =     14.60000  eV     1   --> A              
     e( 21 - 21) =     14.60019  eV     1   --> A              
     e( 22 - 22) =     14.69382  eV     1   --> A              
     e( 23 - 23) =     14.98744  eV     1   --> A              
     e( 24 - 24) =     14.98774  eV     1   --> A              
     e( 25 - 25) =     17.06068  eV     1   --> A              
     e( 26 - 26) =     17.06086  eV     1   --> A              
     e( 27 - 27) =     18.83840  eV     1   --> A              
     e( 28 - 28) =     19.00864  eV     1   --> A              
     e( 29 - 29) =     19.00894  eV     1   --> A              
     e( 30 - 30) =     19.85777  eV     1   --> A              
     e( 31 - 31) =     22.34789  eV     1   --> A              
     e( 32 - 32) =     22.34800  eV     1   --> A              
     e( 33 - 33) =     23.24310  eV     1   --> A              
     e( 34 - 34) =     23.43586  eV     1   --> A              
     e( 35 - 35) =     25.23633  eV     1   --> A              
     e( 36 - 36) =     25.23750  eV     1   --> A              
     e( 37 - 37) =     26.72915  eV     1   --> A              
     e( 38 - 38) =     26.73034  eV     1   --> A              
     e( 39 - 39) =     30.72897  eV     1   --> A              
     e( 40 - 40) =     30.72931  eV     1   --> A              

 **************************************************************************

 **************************************************************************

                    xk=(   0.33330,   0.57729,   0.21976  )

     Band symmetry, C_1 (1)     point group:

     e(  1 -  1) =    -44.21117  eV     1   --> A              
     e(  2 -  2) =    -44.20930  eV     1   --> A              
     e(  3 -  4) =    -20.54161  eV     2   -->   2 A              
     e(  5 -  5) =    -20.53830  eV     1   --> A              
     e(  6 -  7) =    -20.53614  eV     2   -->   2 A              
     e(  8 -  8) =    -20.51433  eV     1   --> A              
     e(  9 - 10) =     -0.47678  eV     2   -->   2 A              
     e( 11 - 12) =      7.00750  eV     2   -->   2 A              
     e( 13 - 13) =      7.26704  eV     1   --> A              
     e( 14 - 14) =      7.56819  eV     1   --> A              
     e( 15 - 16) =      8.04515  eV     2   -->   2 A              
     e( 17 - 18) =     12.73852  eV     2   -->   2 A              
     e( 19 - 19) =     14.52311  eV     1   --> A              
     e( 20 - 20) =     14.62311  eV     1   --> A              
     e( 21 - 21) =     14.62330  eV     1   --> A              
     e( 22 - 22) =     14.68051  eV     1   --> A              
     e( 23 - 23) =     14.96450  eV     1   --> A              
     e( 24 - 24) =     14.96478  eV     1   --> A              
     e( 25 - 25) =     17.07374  eV     1   --> A              
     e( 26 - 26) =     17.07389  eV     1   --> A              
     e( 27 - 27) =     18.90596  eV     1   --> A              
     e( 28 - 28) =     18.98901  eV     1   --> A              
     e( 29 - 29) =     18.98927  eV     1   --> A              
     e( 30 - 30) =     19.78061  eV     1   --> A              
     e( 31 - 32) =     22.35230  eV     2   -->   2 A              
     e( 33 - 33) =     23.25848  eV     1   --> A              
     e( 34 - 34) =     23.42436  eV     1   --> A              
     e( 35 - 35) =     25.27947  eV     1   --> A              
     e( 36 - 36) =     25.28054  eV     1   --> A              
     e( 37 - 37) =     26.69341  eV     1   --> A              
     e( 38 - 38) =     26.69449  eV     1   --> A              
     e( 39 - 39) =     30.72038  eV     1   --> A              
     e( 40 - 40) =     30.72067  eV     1   --> A              

 **************************************************************************

 **************************************************************************

                    xk=(   0.33330,   0.57729,   0.22487  )

     Band symmetry, C_1 (1)     point group:

     e(  1 -  1) =    -44.21102  eV     1   --> A              
     e(  2 -  2) =    -44.20945  eV     1   --> A              
     e(  3 -  4) =    -20.54136  eV     2   -->   2 A              
     e(  5 -  7) =    -20.53638  eV     3   -->   3 A              
     e(  8 -  8) =    -20.51632  eV     1   --> A              
     e(  9 - 10) =     -0.47676  eV     2   -->   2 A              
     e( 11 - 12) =      7.00724  eV     2   -->   2 A              
     e( 13 - 13) =      7.29106  eV     1   --> A              
     e( 14 - 14) =      7.54243  eV     1   --> A              
     e( 15 - 16) =      8.04560  eV     2   -->   2 A              
     e( 17 - 18) =     12.73567  eV     2   -->   2 A              
     e( 19 - 19) =     14.53577  eV     1   --> A              
     e( 20 - 20) =     14.64549  eV     1   --> A              
     e( 21 - 21) =     14.64567  eV     1   --> A              
     e( 22 - 22) =     14.66718  eV     1   --> A              
     e( 23 - 23) =     14.94227  eV     1   --> A              
     e( 24 - 24) =     14.94253  eV     1   --> A              
     e( 25 - 25) =     17.08500  eV     1   --> A              
     e( 26 - 26) =     17.08514  eV     1   --> A              
     e( 27 - 27) =     18.97217  eV     1   --> A              
     e( 28 - 28) =     18.97235  eV     1   --> A              
     e( 29 - 29) =     18.97453  eV     1   --> A              
     e( 30 - 30) =     19.70397  eV     1   --> A              
     e( 31 - 32) =     22.35601  eV     2   -->   2 A              
     e( 33 - 33) =     23.27371  eV     1   --> A              
     e( 34 - 34) =     23.41239  eV     1   --> A              
     e( 35 - 35) =     25.31808  eV     1   --> A              
     e( 36 - 36) =     25.31902  eV     1   --> A              
     e( 37 - 37) =     26.66111  eV     1   --> A              
     e( 38 - 38) =     26.66206  eV     1   --> A              
     e( 39 - 39) =     30.71299  eV     1   --> A              
     e( 40 - 40) =     30.71323  eV     1   --> A              

 **************************************************************************

 **************************************************************************

                    xk=(   0.33330,   0.57729,   0.22998  )

     Band symmetry, C_1 (1)     point group:

     e(  1 -  1) =    -44.21086  eV     1   --> A              
     e(  2 -  2) =    -44.20961  eV     1   --> A              
     e(  3 -  4) =    -20.54114  eV     2   -->   2 A              
     e(  5 -  6) =    -20.53660  eV     2   -->   2 A              
     e(  7 -  7) =    -20.53433  eV     1   --> A              
     e(  8 -  8) =    -20.51831  eV     1   --> A              
     e(  9 - 10) =     -0.47675  eV     2   -->   2 A              
     e( 11 - 12) =      7.00703  eV     2   -->   2 A              
     e( 13 - 13) =      7.31534  eV     1   --> A              
     e( 14 - 14) =      7.51672  eV     1   --> A              
     e( 15 - 16) =      8.04597  eV     2   -->   2 A              
     e( 17 - 18) =     12.73332  eV     2   -->   2 A              
     e( 19 - 19) =     14.54856  eV     1   --> A              
     e( 20 - 20) =     14.65385  eV     1   --> A              
     e( 21 - 21) =     14.66672  eV     1   --> A              
     e( 22 - 22) =     14.66690  eV     1   --> A              
     e( 23 - 23) =     14.92118  eV     1   --> A              
     e( 24 - 24) =     14.92142  eV     1   --> A              
     e( 25 - 25) =     17.09438  eV     1   --> A              
     e( 26 - 26) =     17.09449  eV     1   --> A              
     e( 27 - 27) =     18.95825  eV     1   --> A              
     e( 28 - 28) =     18.95843  eV     1   --> A              
     e( 29 - 29) =     19.04388  eV     1   --> A              
     e( 30 - 30) =     19.62789  eV     1   --> A              
     e( 31 - 32) =     22.35902  eV     2   -->   2 A              
     e( 33 - 33) =     23.28877  eV     1   --> A              
     e( 34 - 34) =     23.40001  eV     1   --> A              
     e( 35 - 35) =     25.35138  eV     1   --> A              
     e( 36 - 36) =     25.35218  eV     1   --> A              
     e( 37 - 37) =     26.63304  eV     1   --> A              
     e( 38 - 38) =     26.63385  eV     1   --> A              
     e( 39 - 39) =     30.70687  eV     1   --> A              
     e( 40 - 40) =     30.70706  eV     1   --> A              

 **************************************************************************

 **************************************************************************

                    xk=(   0.33330,   0.57729,   0.23510  )

     Band symmetry, C_1 (1)     point group:

     e(  1 -  1) =    -44.21070  eV     1   --> A              
     e(  2 -  2) =    -44.20976  eV     1   --> A              
     e(  3 -  4) =    -20.54094  eV     2   -->   2 A              
     e(  5 -  6) =    -20.53679  eV     2   -->   2 A              
     e(  7 -  7) =    -20.53234  eV     1   --> A              
     e(  8 -  8) =    -20.52030  eV     1   --> A              
     e(  9 - 10) =     -0.47674  eV     2   -->   2 A              
     e( 11 - 12) =      7.00687  eV     2   -->   2 A              
     e( 13 - 13) =      7.33988  eV     1   --> A              
     e( 14 - 14) =      7.49107  eV     1   --> A              
     e( 15 - 16) =      8.04626  eV     2   -->   2 A              
     e( 17 - 18) =     12.73150  eV     2   -->   2 A              
     e( 19 - 19) =     14.56146  eV     1   --> A              
     e( 20 - 20) =     14.64052  eV     1   --> A              
     e( 21 - 21) =     14.68610  eV     1   --> A              
     e( 22 - 22) =     14.68626  eV     1   --> A              
     e( 23 - 23) =     14.90192  eV     1   --> A              
     e( 24 - 24) =     14.90213  eV     1   --> A              
     e( 25 - 26) =     17.10178  eV     2   -->   2 A              
     e( 27 - 27) =     18.94733  eV     1   --> A              
     e( 28 - 28) =     18.94747  eV     1   --> A              
     e( 29 - 29) =     19.11418  eV     1   --> A              
     e( 30 - 30) =     19.55244  eV     1   --> A              
     e( 31 - 32) =     22.36136  eV     2   -->   2 A              
     e( 33 - 33) =     23.30363  eV     1   --> A              
     e( 34 - 34) =     23.38726  eV     1   --> A              
     e( 35 - 35) =     25.37855  eV     1   --> A              
     e( 36 - 36) =     25.37918  eV     1   --> A              
     e( 37 - 37) =     26.61006  eV     1   --> A              
     e( 38 - 38) =     26.61069  eV     1   --> A              
     e( 39 - 39) =     30.70209  eV     1   --> A              
     e( 40 - 40) =     30.70223  eV     1   --> A              

 **************************************************************************

 **************************************************************************

                    xk=(   0.33330,   0.57729,   0.24021  )

     Band symmetry, C_1 (1)     point group:

     e(  1 -  1) =    -44.21054  eV     1   --> A              
     e(  2 -  2) =    -44.20992  eV     1   --> A              
     e(  3 -  4) =    -20.54079  eV     2   -->   2 A              
     e(  5 -  6) =    -20.53693  eV     2   -->   2 A              
     e(  7 -  7) =    -20.53034  eV     1   --> A              
     e(  8 -  8) =    -20.52230  eV     1   --> A              
     e(  9 - 10) =     -0.47673  eV     2   -->   2 A              
     e( 11 - 12) =      7.00676  eV     2   -->   2 A              
     e( 13 - 13) =      7.36464  eV     1   --> A              
     e( 14 - 14) =      7.46551  eV     1   --> A              
     e( 15 - 16) =      8.04647  eV     2   -->   2 A              
     e( 17 - 18) =     12.73019  eV     2   -->   2 A              
     e( 19 - 19) =     14.57446  eV     1   --> A              
     e( 20 - 20) =     14.62721  eV     1   --> A              
     e( 21 - 21) =     14.70244  eV     1   --> A              
     e( 22 - 22) =     14.70257  eV     1   --> A              
     e( 23 - 23) =     14.88569  eV     1   --> A              
     e( 24 - 24) =     14.88585  eV     1   --> A              
     e( 25 - 26) =     17.10713  eV     2   -->   2 A              
     e( 27 - 28) =     18.93948  eV     2   -->   2 A              
     e( 29 - 29) =     19.18531  eV     1   --> A              
     e( 30 - 30) =     19.47760  eV     1   --> A              
     e( 31 - 32) =     22.36302  eV     2   -->   2 A              
     e( 33 - 33) =     23.31827  eV     1   --> A              
     e( 34 - 34) =     23.37410  eV     1   --> A              
     e( 35 - 35) =     25.39870  eV     1   --> A              
     e( 36 - 36) =     25.39913  eV     1   --> A              
     e( 37 - 37) =     26.59296  eV     1   --> A              
     e( 38 - 38) =     26.59340  eV     1   --> A              
     e( 39 - 40) =     30.69864  eV     2   -->   2 A              

 **************************************************************************

 **************************************************************************

                    xk=(   0.33330,   0.57729,   0.24532  )

     Band symmetry, C_1 (1)     point group:

     e(  1 -  1) =    -44.21039  eV     1   --> A              
     e(  2 -  2) =    -44.21007  eV     1   --> A              
     e(  3 -  4) =    -20.54070  eV     2   -->   2 A              
     e(  5 -  6) =    -20.53703  eV     2   -->   2 A              
     e(  7 -  7) =    -20.52833  eV     1   --> A              
     e(  8 -  8) =    -20.52431  eV     1   --> A              
     e(  9 - 10) =     -0.47673  eV     2   -->   2 A              
     e( 11 - 12) =      7.00669  eV     2   -->   2 A              
     e( 13 - 13) =      7.38961  eV     1   --> A              
     e( 14 - 14) =      7.44006  eV     1   --> A              
     e( 15 - 16) =      8.04660  eV     2   -->   2 A              
     e( 17 - 18) =     12.72941  eV     2   -->   2 A              
     e( 19 - 19) =     14.58755  eV     1   --> A              
     e( 20 - 20) =     14.61394  eV     1   --> A              
     e( 21 - 22) =     14.71384  eV     2   -->   2 A              
     e( 23 - 24) =     14.87440  eV     2   -->   2 A              
     e( 25 - 26) =     17.11037  eV     2   -->   2 A              
     e( 27 - 28) =     18.93475  eV     2   -->   2 A              
     e( 29 - 29) =     19.25725  eV     1   --> A              
     e( 30 - 30) =     19.40343  eV     1   --> A              
     e( 31 - 32) =     22.36402  eV     2   -->   2 A              
     e( 33 - 33) =     23.33266  eV     1   --> A              
     e( 34 - 34) =     23.36060  eV     1   --> A              
     e( 35 - 35) =     25.41115  eV     1   --> A              
     e( 36 - 36) =     25.41137  eV     1   --> A              
     e( 37 - 37) =     26.58244  eV     1   --> A              
     e( 38 - 38) =     26.58266  eV     1   --> A              
     e( 39 - 40) =     30.69657  eV     2   -->   2 A              

 **************************************************************************

 **************************************************************************

                    xk=(   0.33330,   0.57729,   0.25043  )

     zone border point and non-symmorphic group 
     symmetry decomposition not available

 **************************************************************************

     BANDS        :   3m15.30s CPU   6m37.89s WALL


   This run was terminated on:  15: 0: 1   3Dec2023            

=------------------------------------------------------------------------------=
   JOB DONE.
=------------------------------------------------------------------------------=
