
     Program PWSCF v.7.1 starts on  3Dec2023 at 14:52:35 

     This program is part of the open-source Quantum ESPRESSO suite
     for quantum simulation of materials; please cite
         "P. Giannozzi et al., J. Phys.:Condens. Matter 21 395502 (2009);
         "P. Giannozzi et al., J. Phys.:Condens. Matter 29 465901 (2017);
         "P. Giannozzi et al., J. Chem. Phys. 152 154105 (2020);
          URL http://www.quantum-espresso.org", 
     in publications or presentations arising from this work. More details at
     http://www.quantum-espresso.org/quote

     Parallel version (MPI & OpenMP), running on      60 processor cores
     Number of MPI processes:                30
     Threads/MPI process:                     2

     MPI processes distributed on     5 nodes
     12962 MiB available memory on the printing compute node when the environment starts

     Reading input from TiS.nscf-bands.in

     Current dimensions of program PWSCF are:
     Max number of different atomic species (ntypx) = 10
     Max number of k-points (npk) =  40000
     Max angular momentum in pseudopotentials (lmaxx) =  4

     Atomic positions and unit cell read from directory:
     ./out/TiS.save/
     Atomic positions from file used, from input discarded


     K-points division:     npool     =      30
     Subspace diagonalization in iterative solution of the eigenvalue problem:
     a serial algorithm will be used


     G-vector sticks info
     --------------------
     sticks:   dense  smooth     PW     G-vecs:    dense   smooth      PW
     Sum         379     379    121                11681    11681    2079

     Using Slab Decomposition



     bravais-lattice index     =            4
     lattice parameter (alat)  =       6.2293  a.u.
     unit-cell volume          =     417.9542 (a.u.)^3
     number of atoms/cell      =            4
     number of atomic types    =            2
     number of electrons       =        36.00
     number of Kohn-Sham states=           40
     kinetic-energy cutoff     =      35.0000  Ry
     charge density cutoff     =     140.0000  Ry
     Exchange-correlation=  SLA  PW   PBX  PBC
                           (   1   4   3   4   0   0   0)

     celldm(1)=   6.149169  celldm(2)=   0.000000  celldm(3)=   1.992594
     celldm(4)=   0.000000  celldm(5)=   0.000000  celldm(6)=   0.000000

     crystal axes: (cart. coord. in units of alat)
               a(1) = (   1.000000   0.000000   0.000000 )  
               a(2) = (  -0.500000   0.866025   0.000000 )  
               a(3) = (   0.000000   0.000000   1.996586 )  

     reciprocal axes: (cart. coord. in units 2 pi/alat)
               b(1) = (  1.000000  0.577350 -0.000000 )  
               b(2) = (  0.000000  1.154701  0.000000 )  
               b(3) = (  0.000000 -0.000000  0.500855 )  


     PseudoPot. # 1 for S  read from file:
     /home/tcmp/apps/pseudopotential/s_pbe_v1.4.uspp.F.UPF
     MD5 check sum: 88d86576ff6df21479756cfb9bdac1df
     Pseudo is Ultrasoft + core correction, Zval =  6.0
     Generated by new atomic code, or converted to UPF format
     Using radial grid of  907 points,  6 beta functions with: 
                l(1) =   0
                l(2) =   0
                l(3) =   1
                l(4) =   1
                l(5) =   2
                l(6) =   2
     Q(r) pseudized with  8 coefficients,  rinner =    1.300   1.300   1.300
                                                       1.300   1.300

     PseudoPot. # 2 for Ti read from file:
     /home/tcmp/apps/pseudopotential/ti_pbe_v1.4.uspp.F.UPF
     MD5 check sum: 88a00a6731bd790ddea75d31a80cb452
     Pseudo is Ultrasoft + core correction, Zval = 12.0
     Generated by new atomic code, or converted to UPF format
     Using radial grid of  851 points,  6 beta functions with: 
                l(1) =   0
                l(2) =   0
                l(3) =   1
                l(4) =   1
                l(5) =   2
                l(6) =   2
     Q(r) pseudized with  6 coefficients,  rinner =    1.000   1.000   1.000
                                                       1.000   1.000

     atomic species   valence    mass     pseudopotential
        S              6.00    32.06500     S ( 1.00)
        Ti            12.00    47.86700     Ti( 1.00)

      8 Sym. Ops., with inversion, found ( 4 have fractional translation)



   Cartesian axes

     site n.     atom                  positions (alat units)
         1           S   tau(   1) = (   0.5000000   0.2887168   0.4991465  )
         2           S   tau(   2) = (  -0.0000000   0.5773086   1.4974395  )
         3           Ti  tau(   3) = (   0.0000000   0.0000000   0.0000000  )
         4           Ti  tau(   4) = (   0.0000000   0.0000000   0.9982930  )

     number of k points=   500  Marzari-Vanderbilt smearing, width (Ry)=  0.0147

     Number of k-points >= 100: set verbosity='high' to print them.

     Dense  grid:    11681 G-vectors     FFT dimensions: (  24,  24,  48)

     Estimated max dynamical RAM per process >      13.96 MB

     Estimated total dynamical RAM >     418.70 MB

     Check: negative core charge=   -0.000033

     The potential is recalculated from file :
     ./out/TiS.save/charge-density


     negative rho (up, down):  5.209E-03 0.000E+00
     Starting wfcs are   28 randomized atomic wfcs +   12 random wfcs

     Band Structure Calculation
     Davidson diagonalization with overlap

     ethr =  2.22E-12,  avg # of iterations = 39.3

     total cpu time spent up to now is       21.4 secs

     End of band structure calculation

     Number of k-points >= 100: set verbosity='high' to print the bands.

     Writing all to output data dir ./out/TiS.save/

     init_run     :      0.49s CPU      1.09s WALL (       1 calls)
     electrons    :     25.40s CPU     16.24s WALL (       1 calls)

     Called by init_run:
     wfcinit      :      0.00s CPU      0.61s WALL (       1 calls)
     potinit      :      0.03s CPU      0.01s WALL (       1 calls)
     hinit0       :      0.43s CPU      0.44s WALL (       1 calls)

     Called by electrons:
     c_bands      :     25.40s CPU     16.23s WALL (       1 calls)
     v_of_rho     :      0.02s CPU      0.01s WALL (       1 calls)
     newd         :      0.02s CPU      0.01s WALL (       1 calls)

     Called by c_bands:
     init_us_2    :      0.02s CPU      0.02s WALL (      17 calls)
     init_us_2:cp :      0.02s CPU      0.02s WALL (      17 calls)
     cegterg      :     23.15s CPU     11.69s WALL (      38 calls)

     Called by *egterg:
     cdiaghg      :      2.01s CPU      1.01s WALL (     612 calls)
     h_psi        :     13.59s CPU      6.91s WALL (     650 calls)
     s_psi        :      0.95s CPU      0.48s WALL (     650 calls)
     g_psi        :      0.12s CPU      0.06s WALL (     595 calls)

     Called by h_psi:
     h_psi:calbec :      1.06s CPU      0.50s WALL (     650 calls)
     vloc_psi     :     11.30s CPU      5.77s WALL (     650 calls)
     add_vuspsi   :      1.04s CPU      0.53s WALL (     650 calls)

     General routines
     calbec       :      1.06s CPU      0.50s WALL (     650 calls)
     fft          :      0.00s CPU      0.00s WALL (      12 calls)
     fftw         :      9.75s CPU      4.96s WALL (   32120 calls)
     davcio       :      0.03s CPU      0.65s WALL (      34 calls)

     Parallel routines

     PWSCF        :     28.73s CPU     46.50s WALL


   This run was terminated on:  14:53:21   3Dec2023            

=------------------------------------------------------------------------------=
   JOB DONE.
=------------------------------------------------------------------------------=
