
     Program BANDS v.7.1 starts on  1Dec2023 at  7:56:58 

     This program is part of the open-source Quantum ESPRESSO suite
     for quantum simulation of materials; please cite
         "P. Giannozzi et al., J. Phys.:Condens. Matter 21 395502 (2009);
         "P. Giannozzi et al., J. Phys.:Condens. Matter 29 465901 (2017);
         "P. Giannozzi et al., J. Chem. Phys. 152 154105 (2020);
          URL http://www.quantum-espresso.org", 
     in publications or presentations arising from this work. More details at
     http://www.quantum-espresso.org/quote

     Parallel version (MPI & OpenMP), running on      60 processor cores
     Number of MPI processes:                30
     Threads/MPI process:                     2

     MPI processes distributed on     5 nodes
     R & G space division:  proc/nbgrp/npool/nimage =      30
     14654 MiB available memory on the printing compute node when the environment starts


     Reading xml data from directory:

     ./out/TiS.save/

     IMPORTANT: XC functional enforced from input :
     Exchange-correlation= PBE
                           (   1   4   3   4   0   0   0)
     Any further DFT definition will be discarded
     Please, verify this is what you really want


     Parallelization info
     --------------------
     sticks:   dense  smooth     PW     G-vecs:    dense   smooth      PW
     Min          12      12      4                  386      386      66
     Max          13      13      5                  395      395      72
     Sum         379     379    121                11681    11681    2079

     Using Slab Decomposition


     Check: negative core charge=   -0.000033

     negative rho (up, down):  5.209E-03 0.000E+00
     Reading collected, re-writing distributed wavefunctions
     high-symmetry point:  0.5000 0.2887 0.0000   x coordinate   0.0000
     high-symmetry point:  0.3333 0.5773 0.0000   x coordinate   0.3333
     high-symmetry point:  0.0000 0.0000 0.0000   x coordinate   0.9999
     high-symmetry point:  0.5000 0.2887 0.0000   x coordinate   1.5773
     high-symmetry point:  0.0000 0.0000 0.0000   x coordinate   2.1546
     high-symmetry point:  0.0000 0.0000 0.2504   x coordinate   2.4050
     high-symmetry point:  0.5000 0.2887 0.2504   x coordinate   2.9824
     high-symmetry point:  0.3333 0.5773 0.2504   x coordinate   3.3157

     Plottable bands (eV) written to file TiS.bands.gnu
     Bands written to file TiS.bands

 **************************************************************************

                    xk=(   0.50000,   0.28868,   0.00000  )

     point group C_2h (2/m) 
     there are  4 classes
     the character table:

       E     C2    i     s_h  
A_g    1.00  1.00  1.00  1.00
B_g    1.00 -1.00  1.00 -1.00
A_u    1.00  1.00 -1.00 -1.00
B_u    1.00 -1.00 -1.00  1.00

     the symmetry operations in each class and the name of the first element:

     E        1
                                                                 
     C2       2
                                                                 
     i        3
                                                                 
     s_h      4
                                                                 

     Band symmetry, C_2h (2/m)  point group:

     e(  1 -  1) =    -44.21687  eV     1   --> A_g            
     e(  2 -  2) =    -44.20703  eV     1   --> B_g            
     e(  3 -  3) =    -20.60741  eV     1   --> B_u            
     e(  4 -  4) =    -20.59212  eV     1   --> B_u            
     e(  5 -  5) =    -20.57833  eV     1   --> A_u            
     e(  6 -  6) =    -20.46628  eV     1   --> A_u            
     e(  7 -  7) =    -20.46429  eV     1   --> B_u            
     e(  8 -  8) =    -20.44968  eV     1   --> A_u            
     e(  9 -  9) =     -0.82461  eV     1   --> A_g            
     e( 10 - 10) =     -0.49425  eV     1   --> B_u            
     e( 11 - 11) =      5.66561  eV     1   --> A_g            
     e( 12 - 12) =      7.02150  eV     1   --> B_u            
     e( 13 - 13) =      7.52889  eV     1   --> B_g            
     e( 14 - 14) =      8.29208  eV     1   --> A_u            
     e( 15 - 15) =      8.92191  eV     1   --> A_g            
     e( 16 - 16) =     10.16886  eV     1   --> B_u            
     e( 17 - 17) =     11.23447  eV     1   --> A_g            
     e( 18 - 18) =     12.23034  eV     1   --> B_g            
     e( 19 - 19) =     13.76971  eV     1   --> B_g            
     e( 20 - 20) =     14.91746  eV     1   --> A_g            
     e( 21 - 21) =     15.04796  eV     1   --> B_g            
     e( 22 - 22) =     15.12719  eV     1   --> A_g            
     e( 23 - 23) =     15.14601  eV     1   --> B_g            
     e( 24 - 24) =     15.76241  eV     1   --> A_g            
     e( 25 - 25) =     16.84206  eV     1   --> B_g            
     e( 26 - 26) =     17.09019  eV     1   --> A_g            
     e( 27 - 27) =     17.10265  eV     1   --> B_u            
     e( 28 - 28) =     18.62463  eV     1   --> A_u            
     e( 29 - 29) =     19.42758  eV     1   --> B_g            
     e( 30 - 30) =     19.52861  eV     1   --> B_u            
     e( 31 - 31) =     20.14793  eV     1   --> A_g            
     e( 32 - 32) =     20.62747  eV     1   --> A_u            
     e( 33 - 33) =     23.81971  eV     1   --> A_g            
     e( 34 - 34) =     26.85314  eV     1   --> A_u            
     e( 35 - 35) =     26.90996  eV     1   --> B_u            
     e( 36 - 36) =     27.70596  eV     1   --> B_g            
     e( 37 - 37) =     28.40996  eV     1   --> B_u            
     e( 38 - 38) =     28.45451  eV     1   --> A_g            
     e( 39 - 39) =     28.56893  eV     1   --> B_g            
     e( 40 - 40) =     28.73893  eV     1   --> A_g            

 **************************************************************************

 **************************************************************************

                    xk=(   0.49667,   0.29445,   0.00000  )

     point group C_s (m)    
     there are  2 classes
     the character table:

       E     s    
A'     1.00  1.00
A''    1.00 -1.00

     the symmetry operations in each class and the name of the first element:

     E        1
                                                                 
     s        2
                                                                 

     Band symmetry, C_s (m)     point group:

     e(  1 -  1) =    -44.21686  eV     1   --> A'             
     e(  2 -  2) =    -44.20703  eV     1   --> A''            
     e(  3 -  3) =    -20.60739  eV     1   --> A'             
     e(  4 -  4) =    -20.59211  eV     1   --> A'             
     e(  5 -  5) =    -20.57831  eV     1   --> A''            
     e(  6 -  6) =    -20.46627  eV     1   --> A''            
     e(  7 -  7) =    -20.46433  eV     1   --> A'             
     e(  8 -  8) =    -20.44972  eV     1   --> A''            
     e(  9 -  9) =     -0.82436  eV     1   --> A'             
     e( 10 - 10) =     -0.49420  eV     1   --> A'             
     e( 11 - 11) =      5.66612  eV     1   --> A'             
     e( 12 - 12) =      7.02153  eV     1   --> A'             
     e( 13 - 13) =      7.52924  eV     1   --> A''            
     e( 14 - 14) =      8.29186  eV     1   --> A''            
     e( 15 - 15) =      8.92128  eV     1   --> A'             
     e( 16 - 16) =     10.16244  eV     1   --> A'             
     e( 17 - 17) =     11.24017  eV     1   --> A'             
     e( 18 - 18) =     12.23084  eV     1   --> A''            
     e( 19 - 19) =     13.76952  eV     1   --> A''            
     e( 20 - 20) =     14.91638  eV     1   --> A'             
     e( 21 - 21) =     15.04783  eV     1   --> A''            
     e( 22 - 22) =     15.12689  eV     1   --> A'             
     e( 23 - 23) =     15.14597  eV     1   --> A''            
     e( 24 - 24) =     15.76280  eV     1   --> A'             
     e( 25 - 25) =     16.84180  eV     1   --> A''            
     e( 26 - 26) =     17.03281  eV     1   --> A'             
     e( 27 - 27) =     17.16235  eV     1   --> A'             
     e( 28 - 28) =     18.62638  eV     1   --> A''            
     e( 29 - 29) =     19.42379  eV     1   --> A''            
     e( 30 - 30) =     19.53023  eV     1   --> A'             
     e( 31 - 31) =     20.14962  eV     1   --> A'             
     e( 32 - 32) =     20.62955  eV     1   --> A''            
     e( 33 - 33) =     23.81773  eV     1   --> A'             
     e( 34 - 34) =     26.83935  eV     1   --> A''            
     e( 35 - 35) =     26.90969  eV     1   --> A'             
     e( 36 - 36) =     27.71926  eV     1   --> A''            
     e( 37 - 37) =     28.36999  eV     1   --> A'             
     e( 38 - 38) =     28.44858  eV     1   --> A'             
     e( 39 - 39) =     28.57159  eV     1   --> A''            
     e( 40 - 40) =     28.77862  eV     1   --> A'             

 **************************************************************************

 **************************************************************************

                    xk=(   0.49333,   0.30022,   0.00000  )

     Band symmetry, C_s (m)     point group:

     e(  1 -  1) =    -44.21685  eV     1   --> A'             
     e(  2 -  2) =    -44.20702  eV     1   --> A''            
     e(  3 -  3) =    -20.60731  eV     1   --> A'             
     e(  4 -  4) =    -20.59209  eV     1   --> A'             
     e(  5 -  5) =    -20.57824  eV     1   --> A''            
     e(  6 -  6) =    -20.46626  eV     1   --> A''            
     e(  7 -  7) =    -20.46448  eV     1   --> A'             
     e(  8 -  8) =    -20.44986  eV     1   --> A''            
     e(  9 -  9) =     -0.82361  eV     1   --> A'             
     e( 10 - 10) =     -0.49407  eV     1   --> A'             
     e( 11 - 11) =      5.66765  eV     1   --> A'             
     e( 12 - 12) =      7.02163  eV     1   --> A'             
     e( 13 - 13) =      7.53028  eV     1   --> A''            
     e( 14 - 14) =      8.29121  eV     1   --> A''            
     e( 15 - 15) =      8.91940  eV     1   --> A'             
     e( 16 - 16) =     10.14356  eV     1   --> A'             
     e( 17 - 17) =     11.25683  eV     1   --> A'             
     e( 18 - 18) =     12.23232  eV     1   --> A''            
     e( 19 - 19) =     13.76892  eV     1   --> A''            
     e( 20 - 20) =     14.91315  eV     1   --> A'             
     e( 21 - 21) =     15.04744  eV     1   --> A''            
     e( 22 - 22) =     15.12600  eV     1   --> A'             
     e( 23 - 23) =     15.14583  eV     1   --> A''            
     e( 24 - 24) =     15.76400  eV     1   --> A'             
     e( 25 - 25) =     16.84100  eV     1   --> A''            
     e( 26 - 26) =     16.97202  eV     1   --> A'             
     e( 27 - 27) =     17.23009  eV     1   --> A'             
     e( 28 - 28) =     18.63166  eV     1   --> A''            
     e( 29 - 29) =     19.41252  eV     1   --> A''            
     e( 30 - 30) =     19.53503  eV     1   --> A'             
     e( 31 - 31) =     20.15468  eV     1   --> A'             
     e( 32 - 32) =     20.63567  eV     1   --> A''            
     e( 33 - 33) =     23.81177  eV     1   --> A'             
     e( 34 - 34) =     26.80031  eV     1   --> A''            
     e( 35 - 35) =     26.90873  eV     1   --> A'             
     e( 36 - 36) =     27.75680  eV     1   --> A''            
     e( 37 - 37) =     28.28106  eV     1   --> A'             
     e( 38 - 38) =     28.43129  eV     1   --> A'             
     e( 39 - 39) =     28.57957  eV     1   --> A''            
     e( 40 - 40) =     28.86666  eV     1   --> A'             

 **************************************************************************

 **************************************************************************

                    xk=(   0.49000,   0.30599,   0.00000  )

     Band symmetry, C_s (m)     point group:

     e(  1 -  1) =    -44.21684  eV     1   --> A'             
     e(  2 -  2) =    -44.20701  eV     1   --> A''            
     e(  3 -  3) =    -20.60718  eV     1   --> A'             
     e(  4 -  4) =    -20.59206  eV     1   --> A'             
     e(  5 -  5) =    -20.57812  eV     1   --> A''            
     e(  6 -  6) =    -20.46625  eV     1   --> A''            
     e(  7 -  7) =    -20.46474  eV     1   --> A'             
     e(  8 -  8) =    -20.45010  eV     1   --> A''            
     e(  9 -  9) =     -0.82237  eV     1   --> A'             
     e( 10 - 10) =     -0.49384  eV     1   --> A'             
     e( 11 - 11) =      5.67019  eV     1   --> A'             
     e( 12 - 12) =      7.02180  eV     1   --> A'             
     e( 13 - 13) =      7.53202  eV     1   --> A''            
     e( 14 - 14) =      8.29013  eV     1   --> A''            
     e( 15 - 15) =      8.91628  eV     1   --> A'             
     e( 16 - 16) =     10.11332  eV     1   --> A'             
     e( 17 - 17) =     11.28339  eV     1   --> A'             
     e( 18 - 18) =     12.23480  eV     1   --> A''            
     e( 19 - 19) =     13.76790  eV     1   --> A''            
     e( 20 - 20) =     14.90776  eV     1   --> A'             
     e( 21 - 21) =     15.04683  eV     1   --> A''            
     e( 22 - 22) =     15.12449  eV     1   --> A'             
     e( 23 - 23) =     15.14560  eV     1   --> A''            
     e( 24 - 24) =     15.76598  eV     1   --> A'             
     e( 25 - 25) =     16.83968  eV     1   --> A''            
     e( 26 - 26) =     16.91353  eV     1   --> A'             
     e( 27 - 27) =     17.30014  eV     1   --> A'             
     e( 28 - 28) =     18.64040  eV     1   --> A''            
     e( 29 - 29) =     19.39405  eV     1   --> A''            
     e( 30 - 30) =     19.54302  eV     1   --> A'             
     e( 31 - 31) =     20.16311  eV     1   --> A'             
     e( 32 - 32) =     20.64555  eV     1   --> A''            
     e( 33 - 33) =     23.80188  eV     1   --> A'             
     e( 34 - 34) =     26.74134  eV     1   --> A''            
     e( 35 - 35) =     26.90691  eV     1   --> A'             
     e( 36 - 36) =     27.81325  eV     1   --> A''            
     e( 37 - 37) =     28.17452  eV     1   --> A'             
     e( 38 - 38) =     28.40399  eV     1   --> A'             
     e( 39 - 39) =     28.59285  eV     1   --> A''            
     e( 40 - 40) =     28.97158  eV     1   --> A'             

 **************************************************************************

 **************************************************************************

                    xk=(   0.48666,   0.31176,   0.00000  )

     Band symmetry, C_s (m)     point group:

     e(  1 -  1) =    -44.21683  eV     1   --> A'             
     e(  2 -  2) =    -44.20701  eV     1   --> A''            
     e(  3 -  3) =    -20.60700  eV     1   --> A'             
     e(  4 -  4) =    -20.59202  eV     1   --> A'             
     e(  5 -  5) =    -20.57796  eV     1   --> A''            
     e(  6 -  6) =    -20.46623  eV     1   --> A''            
     e(  7 -  7) =    -20.46510  eV     1   --> A'             
     e(  8 -  8) =    -20.45043  eV     1   --> A''            
     e(  9 -  9) =     -0.82063  eV     1   --> A'             
     e( 10 - 10) =     -0.49353  eV     1   --> A'             
     e( 11 - 11) =      5.67374  eV     1   --> A'             
     e( 12 - 12) =      7.02204  eV     1   --> A'             
     e( 13 - 13) =      7.53445  eV     1   --> A''            
     e( 14 - 14) =      8.28861  eV     1   --> A''            
     e( 15 - 15) =      8.91192  eV     1   --> A'             
     e( 16 - 16) =     10.07324  eV     1   --> A'             
     e( 17 - 17) =     11.31835  eV     1   --> A'             
     e( 18 - 18) =     12.23826  eV     1   --> A''            
     e( 19 - 19) =     13.76646  eV     1   --> A''            
     e( 20 - 20) =     14.90027  eV     1   --> A'             
     e( 21 - 21) =     15.04602  eV     1   --> A''            
     e( 22 - 22) =     15.12235  eV     1   --> A'             
     e( 23 - 23) =     15.14526  eV     1   --> A''            
     e( 24 - 24) =     15.76875  eV     1   --> A'             
     e( 25 - 25) =     16.83783  eV     1   --> A''            
     e( 26 - 26) =     16.85742  eV     1   --> A'             
     e( 27 - 27) =     17.37235  eV     1   --> A'             
     e( 28 - 28) =     18.65260  eV     1   --> A''            
     e( 29 - 29) =     19.36883  eV     1   --> A''            
     e( 30 - 30) =     19.55421  eV     1   --> A'             
     e( 31 - 31) =     20.17492  eV     1   --> A'             
     e( 32 - 32) =     20.65878  eV     1   --> A''            
     e( 33 - 33) =     23.78812  eV     1   --> A'             
     e( 34 - 34) =     26.66805  eV     1   --> A''            
     e( 35 - 35) =     26.90406  eV     1   --> A'             
     e( 36 - 36) =     27.88298  eV     1   --> A''            
     e( 37 - 37) =     28.06119  eV     1   --> A'             
     e( 38 - 38) =     28.36843  eV     1   --> A'             
     e( 39 - 39) =     28.61138  eV     1   --> A''            
     e( 40 - 40) =     29.03511  eV     1   --> A'             

 **************************************************************************

 **************************************************************************

                    xk=(   0.48333,   0.31754,   0.00000  )

     Band symmetry, C_s (m)     point group:

     e(  1 -  1) =    -44.21681  eV     1   --> A'             
     e(  2 -  2) =    -44.20699  eV     1   --> A''            
     e(  3 -  3) =    -20.60678  eV     1   --> A'             
     e(  4 -  4) =    -20.59197  eV     1   --> A'             
     e(  5 -  5) =    -20.57774  eV     1   --> A''            
     e(  6 -  6) =    -20.46620  eV     1   --> A''            
     e(  7 -  7) =    -20.46555  eV     1   --> A'             
     e(  8 -  8) =    -20.45085  eV     1   --> A''            
     e(  9 -  9) =     -0.81840  eV     1   --> A'             
     e( 10 - 10) =     -0.49314  eV     1   --> A'             
     e( 11 - 11) =      5.67831  eV     1   --> A'             
     e( 12 - 12) =      7.02234  eV     1   --> A'             
     e( 13 - 13) =      7.53757  eV     1   --> A''            
     e( 14 - 14) =      8.28668  eV     1   --> A''            
     e( 15 - 15) =      8.90636  eV     1   --> A'             
     e( 16 - 16) =     10.02491  eV     1   --> A'             
     e( 17 - 17) =     11.36014  eV     1   --> A'             
     e( 18 - 18) =     12.24270  eV     1   --> A''            
     e( 19 - 19) =     13.76455  eV     1   --> A''            
     e( 20 - 20) =     14.89071  eV     1   --> A'             
     e( 21 - 21) =     15.04511  eV     1   --> A''            
     e( 22 - 22) =     15.11955  eV     1   --> A'             
     e( 23 - 23) =     15.14484  eV     1   --> A''            
     e( 24 - 24) =     15.77231  eV     1   --> A'             
     e( 25 - 25) =     16.80373  eV     1   --> A'             
     e( 26 - 26) =     16.83545  eV     1   --> A''            
     e( 27 - 27) =     17.44663  eV     1   --> A'             
     e( 28 - 28) =     18.66821  eV     1   --> A''            
     e( 29 - 29) =     19.33741  eV     1   --> A''            
     e( 30 - 30) =     19.56860  eV     1   --> A'             
     e( 31 - 31) =     20.19008  eV     1   --> A'             
     e( 32 - 32) =     20.67490  eV     1   --> A''            
     e( 33 - 33) =     23.77060  eV     1   --> A'             
     e( 34 - 34) =     26.58487  eV     1   --> A''            
     e( 35 - 35) =     26.89994  eV     1   --> A'             
     e( 36 - 36) =     27.94487  eV     1   --> A'             
     e( 37 - 37) =     27.96162  eV     1   --> A''            
     e( 38 - 38) =     28.32650  eV     1   --> A'             
     e( 39 - 39) =     28.63513  eV     1   --> A''            
     e( 40 - 40) =     29.04469  eV     1   --> A'             

 **************************************************************************

 **************************************************************************

                    xk=(   0.48000,   0.32331,   0.00000  )

     Band symmetry, C_s (m)     point group:

     e(  1 -  1) =    -44.21678  eV     1   --> A'             
     e(  2 -  2) =    -44.20697  eV     1   --> A''            
     e(  3 -  3) =    -20.60650  eV     1   --> A'             
     e(  4 -  4) =    -20.59190  eV     1   --> A'             
     e(  5 -  5) =    -20.57748  eV     1   --> A''            
     e(  6 -  7) =    -20.46617  eV     2   --> A'             
     e(  6 -  7) =    -20.46617  eV     2   --> A''            
     e(  8 -  8) =    -20.45136  eV     1   --> A''            
     e(  9 -  9) =     -0.81569  eV     1   --> A'             
     e( 10 - 10) =     -0.49265  eV     1   --> A'             
     e( 11 - 11) =      5.68389  eV     1   --> A'             
     e( 12 - 12) =      7.02270  eV     1   --> A'             
     e( 13 - 13) =      7.54136  eV     1   --> A''            
     e( 14 - 14) =      8.28433  eV     1   --> A''            
     e( 15 - 15) =      8.89960  eV     1   --> A'             
     e( 16 - 16) =      9.96983  eV     1   --> A'             
     e( 17 - 17) =     11.40729  eV     1   --> A'             
     e( 18 - 18) =     12.24812  eV     1   --> A''            
     e( 19 - 19) =     13.76218  eV     1   --> A''            
     e( 20 - 20) =     14.87916  eV     1   --> A'             
     e( 21 - 21) =     15.04415  eV     1   --> A''            
     e( 22 - 22) =     15.11608  eV     1   --> A'             
     e( 23 - 23) =     15.14432  eV     1   --> A''            
     e( 24 - 24) =     15.77665  eV     1   --> A'             
     e( 25 - 25) =     16.75248  eV     1   --> A'             
     e( 26 - 26) =     16.83253  eV     1   --> A''            
     e( 27 - 27) =     17.52291  eV     1   --> A'             
     e( 28 - 28) =     18.68717  eV     1   --> A''            
     e( 29 - 29) =     19.30038  eV     1   --> A''            
     e( 30 - 30) =     19.58618  eV     1   --> A'             
     e( 31 - 31) =     20.20863  eV     1   --> A'             
     e( 32 - 32) =     20.69333  eV     1   --> A''            
     e( 33 - 33) =     23.74941  eV     1   --> A'             
     e( 34 - 34) =     26.49487  eV     1   --> A''            
     e( 35 - 35) =     26.89416  eV     1   --> A'             
     e( 36 - 36) =     27.82704  eV     1   --> A'             
     e( 37 - 37) =     28.04612  eV     1   --> A''            
     e( 38 - 38) =     28.27989  eV     1   --> A'             
     e( 39 - 39) =     28.66403  eV     1   --> A''            
     e( 40 - 40) =     29.05256  eV     1   --> A'             

 **************************************************************************

 **************************************************************************

                    xk=(   0.47666,   0.32908,   0.00000  )

     Band symmetry, C_s (m)     point group:

     e(  1 -  1) =    -44.21675  eV     1   --> A'             
     e(  2 -  2) =    -44.20695  eV     1   --> A''            
     e(  3 -  3) =    -20.60618  eV     1   --> A'             
     e(  4 -  4) =    -20.59182  eV     1   --> A'             
     e(  5 -  5) =    -20.57718  eV     1   --> A''            
     e(  6 -  6) =    -20.46677  eV     1   --> A'             
     e(  7 -  7) =    -20.46614  eV     1   --> A''            
     e(  8 -  8) =    -20.45197  eV     1   --> A''            
     e(  9 -  9) =     -0.81249  eV     1   --> A'             
     e( 10 - 10) =     -0.49209  eV     1   --> A'             
     e( 11 - 11) =      5.69047  eV     1   --> A'             
     e( 12 - 12) =      7.02312  eV     1   --> A'             
     e( 13 - 13) =      7.54583  eV     1   --> A''            
     e( 14 - 14) =      8.28157  eV     1   --> A''            
     e( 15 - 15) =      8.89167  eV     1   --> A'             
     e( 16 - 16) =      9.90930  eV     1   --> A'             
     e( 17 - 17) =     11.45856  eV     1   --> A'             
     e( 18 - 18) =     12.25451  eV     1   --> A''            
     e( 19 - 19) =     13.75926  eV     1   --> A''            
     e( 20 - 20) =     14.86567  eV     1   --> A'             
     e( 21 - 21) =     15.04324  eV     1   --> A''            
     e( 22 - 22) =     15.11188  eV     1   --> A'             
     e( 23 - 23) =     15.14370  eV     1   --> A''            
     e( 24 - 24) =     15.78174  eV     1   --> A'             
     e( 25 - 25) =     16.70363  eV     1   --> A'             
     e( 26 - 26) =     16.82907  eV     1   --> A''            
     e( 27 - 27) =     17.60106  eV     1   --> A'             
     e( 28 - 28) =     18.70941  eV     1   --> A''            
     e( 29 - 29) =     19.25835  eV     1   --> A''            
     e( 30 - 30) =     19.60695  eV     1   --> A'             
     e( 31 - 31) =     20.23051  eV     1   --> A'             
     e( 32 - 32) =     20.71356  eV     1   --> A''            
     e( 33 - 33) =     23.72467  eV     1   --> A'             
     e( 34 - 34) =     26.40006  eV     1   --> A''            
     e( 35 - 35) =     26.88627  eV     1   --> A'             
     e( 36 - 36) =     27.70842  eV     1   --> A'             
     e( 37 - 37) =     28.13427  eV     1   --> A''            
     e( 38 - 38) =     28.23013  eV     1   --> A'             
     e( 39 - 39) =     28.69799  eV     1   --> A''            
     e( 40 - 40) =     29.05769  eV     1   --> A'             

 **************************************************************************

 **************************************************************************

                    xk=(   0.47333,   0.33485,   0.00000  )

     Band symmetry, C_s (m)     point group:

     e(  1 -  1) =    -44.21672  eV     1   --> A'             
     e(  2 -  2) =    -44.20692  eV     1   --> A''            
     e(  3 -  3) =    -20.60581  eV     1   --> A'             
     e(  4 -  4) =    -20.59173  eV     1   --> A'             
     e(  5 -  5) =    -20.57682  eV     1   --> A''            
     e(  6 -  6) =    -20.46752  eV     1   --> A'             
     e(  7 -  7) =    -20.46609  eV     1   --> A''            
     e(  8 -  8) =    -20.45266  eV     1   --> A''            
     e(  9 -  9) =     -0.80882  eV     1   --> A'             
     e( 10 - 10) =     -0.49145  eV     1   --> A'             
     e( 11 - 11) =      5.69806  eV     1   --> A'             
     e( 12 - 12) =      7.02361  eV     1   --> A'             
     e( 13 - 13) =      7.55095  eV     1   --> A''            
     e( 14 - 14) =      8.27840  eV     1   --> A''            
     e( 15 - 15) =      8.88262  eV     1   --> A'             
     e( 16 - 16) =      9.84437  eV     1   --> A'             
     e( 17 - 17) =     11.51294  eV     1   --> A'             
     e( 18 - 18) =     12.26187  eV     1   --> A''            
     e( 19 - 19) =     13.75579  eV     1   --> A''            
     e( 20 - 20) =     14.85034  eV     1   --> A'             
     e( 21 - 21) =     15.04248  eV     1   --> A''            
     e( 22 - 22) =     15.10692  eV     1   --> A'             
     e( 23 - 23) =     15.14298  eV     1   --> A''            
     e( 24 - 24) =     15.78759  eV     1   --> A'             
     e( 25 - 25) =     16.65717  eV     1   --> A'             
     e( 26 - 26) =     16.82507  eV     1   --> A''            
     e( 27 - 27) =     17.68099  eV     1   --> A'             
     e( 28 - 28) =     18.73486  eV     1   --> A''            
     e( 29 - 29) =     19.21193  eV     1   --> A''            
     e( 30 - 30) =     19.63092  eV     1   --> A'             
     e( 31 - 31) =     20.25573  eV     1   --> A'             
     e( 32 - 32) =     20.73506  eV     1   --> A''            
     e( 33 - 33) =     23.69655  eV     1   --> A'             
     e( 34 - 34) =     26.30187  eV     1   --> A''            
     e( 35 - 35) =     26.87574  eV     1   --> A'             
     e( 36 - 36) =     27.58943  eV     1   --> A'             
     e( 37 - 37) =     28.17865  eV     1   --> A'             
     e( 38 - 38) =     28.22491  eV     1   --> A''            
     e( 39 - 39) =     28.73694  eV     1   --> A''            
     e( 40 - 40) =     29.05939  eV     1   --> A'             

 **************************************************************************

 **************************************************************************

                    xk=(   0.46999,   0.34063,   0.00000  )

     Band symmetry, C_s (m)     point group:

     e(  1 -  1) =    -44.21668  eV     1   --> A'             
     e(  2 -  2) =    -44.20689  eV     1   --> A''            
     e(  3 -  3) =    -20.60539  eV     1   --> A'             
     e(  4 -  4) =    -20.59163  eV     1   --> A'             
     e(  5 -  5) =    -20.57642  eV     1   --> A''            
     e(  6 -  6) =    -20.46838  eV     1   --> A'             
     e(  7 -  7) =    -20.46605  eV     1   --> A''            
     e(  8 -  8) =    -20.45344  eV     1   --> A''            
     e(  9 -  9) =     -0.80469  eV     1   --> A'             
     e( 10 - 10) =     -0.49073  eV     1   --> A'             
     e( 11 - 11) =      5.70665  eV     1   --> A'             
     e( 12 - 12) =      7.02414  eV     1   --> A'             
     e( 13 - 13) =      7.55672  eV     1   --> A''            
     e( 14 - 14) =      8.27485  eV     1   --> A''            
     e( 15 - 15) =      8.87248  eV     1   --> A'             
     e( 16 - 16) =      9.77590  eV     1   --> A'             
     e( 17 - 17) =     11.56962  eV     1   --> A'             
     e( 18 - 18) =     12.27018  eV     1   --> A''            
     e( 19 - 19) =     13.75169  eV     1   --> A''            
     e( 20 - 20) =     14.83325  eV     1   --> A'             
     e( 21 - 21) =     15.04199  eV     1   --> A''            
     e( 22 - 22) =     15.10117  eV     1   --> A'             
     e( 23 - 23) =     15.14215  eV     1   --> A''            
     e( 24 - 24) =     15.79417  eV     1   --> A'             
     e( 25 - 25) =     16.61308  eV     1   --> A'             
     e( 26 - 26) =     16.82052  eV     1   --> A''            
     e( 27 - 27) =     17.76261  eV     1   --> A'             
     e( 28 - 28) =     18.76344  eV     1   --> A''            
     e( 29 - 29) =     19.16168  eV     1   --> A''            
     e( 30 - 30) =     19.65809  eV     1   --> A'             
     e( 31 - 31) =     20.28429  eV     1   --> A'             
     e( 32 - 32) =     20.75738  eV     1   --> A''            
     e( 33 - 33) =     23.66519  eV     1   --> A'             
     e( 34 - 34) =     26.20122  eV     1   --> A''            
     e( 35 - 35) =     26.86197  eV     1   --> A'             
     e( 36 - 36) =     27.47031  eV     1   --> A'             
     e( 37 - 37) =     28.12666  eV     1   --> A'             
     e( 38 - 38) =     28.31693  eV     1   --> A''            
     e( 39 - 39) =     28.78077  eV     1   --> A''            
     e( 40 - 40) =     29.05710  eV     1   --> A'             

 **************************************************************************

 **************************************************************************

                    xk=(   0.46666,   0.34640,   0.00000  )

     Band symmetry, C_s (m)     point group:

     e(  1 -  1) =    -44.21665  eV     1   --> A'             
     e(  2 -  2) =    -44.20685  eV     1   --> A''            
     e(  3 -  3) =    -20.60492  eV     1   --> A'             
     e(  4 -  4) =    -20.59151  eV     1   --> A'             
     e(  5 -  5) =    -20.57598  eV     1   --> A''            
     e(  6 -  6) =    -20.46932  eV     1   --> A'             
     e(  7 -  7) =    -20.46600  eV     1   --> A''            
     e(  8 -  8) =    -20.45431  eV     1   --> A''            
     e(  9 -  9) =     -0.80010  eV     1   --> A'             
     e( 10 - 10) =     -0.48994  eV     1   --> A'             
     e( 11 - 11) =      5.71625  eV     1   --> A'             
     e( 12 - 12) =      7.02473  eV     1   --> A'             
     e( 13 - 13) =      7.56313  eV     1   --> A''            
     e( 14 - 14) =      8.27091  eV     1   --> A''            
     e( 15 - 15) =      8.86129  eV     1   --> A'             
     e( 16 - 16) =      9.70457  eV     1   --> A'             
     e( 17 - 17) =     11.62798  eV     1   --> A'             
     e( 18 - 18) =     12.27943  eV     1   --> A''            
     e( 19 - 19) =     13.74694  eV     1   --> A''            
     e( 20 - 20) =     14.81451  eV     1   --> A'             
     e( 21 - 21) =     15.04187  eV     1   --> A''            
     e( 22 - 22) =     15.09458  eV     1   --> A'             
     e( 23 - 23) =     15.14122  eV     1   --> A''            
     e( 24 - 24) =     15.80145  eV     1   --> A'             
     e( 25 - 25) =     16.57130  eV     1   --> A'             
     e( 26 - 26) =     16.81541  eV     1   --> A''            
     e( 27 - 27) =     17.84579  eV     1   --> A'             
     e( 28 - 28) =     18.79506  eV     1   --> A''            
     e( 29 - 29) =     19.10809  eV     1   --> A''            
     e( 30 - 30) =     19.68846  eV     1   --> A'             
     e( 31 - 31) =     20.31617  eV     1   --> A'             
     e( 32 - 32) =     20.78012  eV     1   --> A''            
     e( 33 - 33) =     23.63077  eV     1   --> A'             
     e( 34 - 34) =     26.09877  eV     1   --> A''            
     e( 35 - 35) =     26.84430  eV     1   --> A'             
     e( 36 - 36) =     27.35123  eV     1   --> A'             
     e( 37 - 37) =     28.07532  eV     1   --> A'             
     e( 38 - 38) =     28.40973  eV     1   --> A''            
     e( 39 - 39) =     28.82937  eV     1   --> A''            
     e( 40 - 40) =     29.05057  eV     1   --> A'             

 **************************************************************************

 **************************************************************************

                    xk=(   0.46333,   0.35217,   0.00000  )

     Band symmetry, C_s (m)     point group:

     e(  1 -  1) =    -44.21661  eV     1   --> A'             
     e(  2 -  2) =    -44.20682  eV     1   --> A''            
     e(  3 -  3) =    -20.60442  eV     1   --> A'             
     e(  4 -  4) =    -20.59138  eV     1   --> A'             
     e(  5 -  5) =    -20.57548  eV     1   --> A''            
     e(  6 -  6) =    -20.47036  eV     1   --> A'             
     e(  7 -  7) =    -20.46594  eV     1   --> A''            
     e(  8 -  8) =    -20.45527  eV     1   --> A''            
     e(  9 -  9) =     -0.79506  eV     1   --> A'             
     e( 10 - 10) =     -0.48908  eV     1   --> A'             
     e( 11 - 11) =      5.72683  eV     1   --> A'             
     e( 12 - 12) =      7.02536  eV     1   --> A'             
     e( 13 - 13) =      7.57016  eV     1   --> A''            
     e( 14 - 14) =      8.26660  eV     1   --> A''            
     e( 15 - 15) =      8.84909  eV     1   --> A'             
     e( 16 - 16) =      9.63094  eV     1   --> A'             
     e( 17 - 17) =     11.68754  eV     1   --> A'             
     e( 18 - 18) =     12.28962  eV     1   --> A''            
     e( 19 - 19) =     13.74148  eV     1   --> A''            
     e( 20 - 20) =     14.79423  eV     1   --> A'             
     e( 21 - 21) =     15.04225  eV     1   --> A''            
     e( 22 - 22) =     15.08713  eV     1   --> A'             
     e( 23 - 23) =     15.14017  eV     1   --> A''            
     e( 24 - 24) =     15.80940  eV     1   --> A'             
     e( 25 - 25) =     16.53180  eV     1   --> A'             
     e( 26 - 26) =     16.80975  eV     1   --> A''            
     e( 27 - 27) =     17.93041  eV     1   --> A'             
     e( 28 - 28) =     18.82961  eV     1   --> A''            
     e( 29 - 29) =     19.05164  eV     1   --> A''            
     e( 30 - 30) =     19.72204  eV     1   --> A'             
     e( 31 - 31) =     20.35134  eV     1   --> A'             
     e( 32 - 32) =     20.80291  eV     1   --> A''            
     e( 33 - 33) =     23.59342  eV     1   --> A'             
     e( 34 - 34) =     25.99496  eV     1   --> A''            
     e( 35 - 35) =     26.82205  eV     1   --> A'             
     e( 36 - 36) =     27.23232  eV     1   --> A'             
     e( 37 - 37) =     28.02566  eV     1   --> A'             
     e( 38 - 38) =     28.50281  eV     1   --> A''            
     e( 39 - 39) =     28.88260  eV     1   --> A''            
     e( 40 - 40) =     29.03965  eV     1   --> A'             

 **************************************************************************

 **************************************************************************

                    xk=(   0.45999,   0.35794,   0.00000  )

     Band symmetry, C_s (m)     point group:

     e(  1 -  1) =    -44.21656  eV     1   --> A'             
     e(  2 -  2) =    -44.20678  eV     1   --> A''            
     e(  3 -  3) =    -20.60386  eV     1   --> A'             
     e(  4 -  4) =    -20.59123  eV     1   --> A'             
     e(  5 -  5) =    -20.57495  eV     1   --> A''            
     e(  6 -  6) =    -20.47149  eV     1   --> A'             
     e(  7 -  7) =    -20.46588  eV     1   --> A''            
     e(  8 -  8) =    -20.45630  eV     1   --> A''            
     e(  9 -  9) =     -0.78958  eV     1   --> A'             
     e( 10 - 10) =     -0.48815  eV     1   --> A'             
     e( 11 - 11) =      5.73841  eV     1   --> A'             
     e( 12 - 12) =      7.02604  eV     1   --> A'             
     e( 13 - 13) =      7.57780  eV     1   --> A''            
     e( 14 - 14) =      8.26194  eV     1   --> A''            
     e( 15 - 15) =      8.83594  eV     1   --> A'             
     e( 16 - 16) =      9.55545  eV     1   --> A'             
     e( 17 - 17) =     11.74793  eV     1   --> A'             
     e( 18 - 18) =     12.30072  eV     1   --> A''            
     e( 19 - 19) =     13.73528  eV     1   --> A''            
     e( 20 - 20) =     14.77252  eV     1   --> A'             
     e( 21 - 21) =     15.04325  eV     1   --> A''            
     e( 22 - 22) =     15.07878  eV     1   --> A'             
     e( 23 - 23) =     15.13902  eV     1   --> A''            
     e( 24 - 24) =     15.81797  eV     1   --> A'             
     e( 25 - 25) =     16.49450  eV     1   --> A'             
     e( 26 - 26) =     16.80351  eV     1   --> A''            
     e( 27 - 27) =     18.01637  eV     1   --> A'             
     e( 28 - 28) =     18.86700  eV     1   --> A''            
     e( 29 - 29) =     18.99276  eV     1   --> A''            
     e( 30 - 30) =     19.75883  eV     1   --> A'             
     e( 31 - 31) =     20.38978  eV     1   --> A'             
     e( 32 - 32) =     20.82549  eV     1   --> A''            
     e( 33 - 33) =     23.55338  eV     1   --> A'             
     e( 34 - 34) =     25.89020  eV     1   --> A''            
     e( 35 - 35) =     26.79458  eV     1   --> A'             
     e( 36 - 36) =     27.11367  eV     1   --> A'             
     e( 37 - 37) =     27.97871  eV     1   --> A'             
     e( 38 - 38) =     28.59585  eV     1   --> A''            
     e( 39 - 39) =     28.94033  eV     1   --> A''            
     e( 40 - 40) =     29.02442  eV     1   --> A'             

 **************************************************************************

 **************************************************************************

                    xk=(   0.45666,   0.36372,   0.00000  )

     Band symmetry, C_s (m)     point group:

     e(  1 -  1) =    -44.21652  eV     1   --> A'             
     e(  2 -  2) =    -44.20673  eV     1   --> A''            
     e(  3 -  3) =    -20.60327  eV     1   --> A'             
     e(  4 -  4) =    -20.59107  eV     1   --> A'             
     e(  5 -  5) =    -20.57436  eV     1   --> A''            
     e(  6 -  6) =    -20.47272  eV     1   --> A'             
     e(  7 -  7) =    -20.46582  eV     1   --> A''            
     e(  8 -  8) =    -20.45742  eV     1   --> A''            
     e(  9 -  9) =     -0.78368  eV     1   --> A'             
     e( 10 - 10) =     -0.48717  eV     1   --> A'             
     e( 11 - 11) =      5.75098  eV     1   --> A'             
     e( 12 - 12) =      7.02675  eV     1   --> A'             
     e( 13 - 13) =      7.58603  eV     1   --> A''            
     e( 14 - 14) =      8.25693  eV     1   --> A''            
     e( 15 - 15) =      8.82189  eV     1   --> A'             
     e( 16 - 16) =      9.47845  eV     1   --> A'             
     e( 17 - 17) =     11.80887  eV     1   --> A'             
     e( 18 - 18) =     12.31273  eV     1   --> A''            
     e( 19 - 19) =     13.72828  eV     1   --> A''            
     e( 20 - 20) =     14.74951  eV     1   --> A'             
     e( 21 - 21) =     15.04499  eV     1   --> A''            
     e( 22 - 22) =     15.06949  eV     1   --> A'             
     e( 23 - 23) =     15.13776  eV     1   --> A''            
     e( 24 - 24) =     15.82713  eV     1   --> A'             
     e( 25 - 25) =     16.45934  eV     1   --> A'             
     e( 26 - 26) =     16.79668  eV     1   --> A''            
     e( 27 - 27) =     18.10352  eV     1   --> A'             
     e( 28 - 28) =     18.90710  eV     1   --> A''            
     e( 29 - 29) =     18.93181  eV     1   --> A''            
     e( 30 - 30) =     19.79886  eV     1   --> A'             
     e( 31 - 31) =     20.43145  eV     1   --> A'             
     e( 32 - 32) =     20.84760  eV     1   --> A''            
     e( 33 - 33) =     23.51081  eV     1   --> A'             
     e( 34 - 34) =     25.78470  eV     1   --> A''            
     e( 35 - 35) =     26.76129  eV     1   --> A'             
     e( 36 - 36) =     26.99534  eV     1   --> A'             
     e( 37 - 37) =     27.93524  eV     1   --> A'             
     e( 38 - 38) =     28.68844  eV     1   --> A''            
     e( 39 - 39) =     29.00240  eV     1   --> A''            
     e( 40 - 40) =     29.00494  eV     1   --> A'             

 **************************************************************************

 **************************************************************************

                    xk=(   0.45332,   0.36949,   0.00000  )

     Band symmetry, C_s (m)     point group:

     e(  1 -  1) =    -44.21647  eV     1   --> A'             
     e(  2 -  2) =    -44.20668  eV     1   --> A''            
     e(  3 -  3) =    -20.60264  eV     1   --> A'             
     e(  4 -  4) =    -20.59089  eV     1   --> A'             
     e(  5 -  5) =    -20.57374  eV     1   --> A''            
     e(  6 -  6) =    -20.47403  eV     1   --> A'             
     e(  7 -  7) =    -20.46575  eV     1   --> A''            
     e(  8 -  8) =    -20.45862  eV     1   --> A''            
     e(  9 -  9) =     -0.77736  eV     1   --> A'             
     e( 10 - 10) =     -0.48612  eV     1   --> A'             
     e( 11 - 11) =      5.76452  eV     1   --> A'             
     e( 12 - 12) =      7.02750  eV     1   --> A'             
     e( 13 - 13) =      7.59482  eV     1   --> A''            
     e( 14 - 14) =      8.25159  eV     1   --> A''            
     e( 15 - 15) =      8.80701  eV     1   --> A'             
     e( 16 - 16) =      9.40024  eV     1   --> A'             
     e( 17 - 17) =     11.87014  eV     1   --> A'             
     e( 18 - 18) =     12.32563  eV     1   --> A''            
     e( 19 - 19) =     13.72045  eV     1   --> A''            
     e( 20 - 20) =     14.72531  eV     1   --> A'             
     e( 21 - 21) =     15.04760  eV     1   --> A''            
     e( 22 - 22) =     15.05926  eV     1   --> A'             
     e( 23 - 23) =     15.13637  eV     1   --> A''            
     e( 24 - 24) =     15.83683  eV     1   --> A'             
     e( 25 - 25) =     16.42625  eV     1   --> A'             
     e( 26 - 26) =     16.78927  eV     1   --> A''            
     e( 27 - 27) =     18.19172  eV     1   --> A'             
     e( 28 - 28) =     18.86914  eV     1   --> A''            
     e( 29 - 29) =     18.94984  eV     1   --> A''            
     e( 30 - 30) =     19.84213  eV     1   --> A'             
     e( 31 - 31) =     20.47635  eV     1   --> A'             
     e( 32 - 32) =     20.86905  eV     1   --> A''            
     e( 33 - 33) =     23.46587  eV     1   --> A'             
     e( 34 - 34) =     25.67873  eV     1   --> A''            
     e( 35 - 35) =     26.72174  eV     1   --> A'             
     e( 36 - 36) =     26.87741  eV     1   --> A'             
     e( 37 - 37) =     27.89590  eV     1   --> A'             
     e( 38 - 38) =     28.78062  eV     1   --> A''            
     e( 39 - 39) =     28.98146  eV     1   --> A'             
     e( 40 - 40) =     29.06865  eV     1   --> A''            

 **************************************************************************

 **************************************************************************

                    xk=(   0.44999,   0.37526,   0.00000  )

     Band symmetry, C_s (m)     point group:

     e(  1 -  1) =    -44.21642  eV     1   --> A'             
     e(  2 -  2) =    -44.20664  eV     1   --> A''            
     e(  3 -  3) =    -20.60196  eV     1   --> A'             
     e(  4 -  4) =    -20.59069  eV     1   --> A'             
     e(  5 -  5) =    -20.57307  eV     1   --> A''            
     e(  6 -  6) =    -20.47543  eV     1   --> A'             
     e(  7 -  7) =    -20.46569  eV     1   --> A''            
     e(  8 -  8) =    -20.45989  eV     1   --> A''            
     e(  9 -  9) =     -0.77065  eV     1   --> A'             
     e( 10 - 10) =     -0.48504  eV     1   --> A'             
     e( 11 - 11) =      5.77904  eV     1   --> A'             
     e( 12 - 12) =      7.02827  eV     1   --> A'             
     e( 13 - 13) =      7.60416  eV     1   --> A''            
     e( 14 - 14) =      8.24593  eV     1   --> A''            
     e( 15 - 15) =      8.79134  eV     1   --> A'             
     e( 16 - 16) =      9.32108  eV     1   --> A'             
     e( 17 - 17) =     11.93158  eV     1   --> A'             
     e( 18 - 18) =     12.33940  eV     1   --> A''            
     e( 19 - 19) =     13.71175  eV     1   --> A''            
     e( 20 - 20) =     14.70007  eV     1   --> A'             
     e( 21 - 21) =     15.04805  eV     1   --> A'             
     e( 22 - 22) =     15.05117  eV     1   --> A''            
     e( 23 - 23) =     15.13486  eV     1   --> A''            
     e( 24 - 24) =     15.84699  eV     1   --> A'             
     e( 25 - 25) =     16.39515  eV     1   --> A'             
     e( 26 - 26) =     16.78125  eV     1   --> A''            
     e( 27 - 27) =     18.28083  eV     1   --> A'             
     e( 28 - 28) =     18.80507  eV     1   --> A''            
     e( 29 - 29) =     18.99506  eV     1   --> A''            
     e( 30 - 30) =     19.88865  eV     1   --> A'             
     e( 31 - 31) =     20.52438  eV     1   --> A'             
     e( 32 - 32) =     20.88966  eV     1   --> A''            
     e( 33 - 33) =     23.41875  eV     1   --> A'             
     e( 34 - 34) =     25.57244  eV     1   --> A''            
     e( 35 - 35) =     26.67564  eV     1   --> A'             
     e( 36 - 36) =     26.75994  eV     1   --> A'             
     e( 37 - 37) =     27.86107  eV     1   --> A'             
     e( 38 - 38) =     28.87206  eV     1   --> A''            
     e( 39 - 39) =     28.95415  eV     1   --> A'             
     e( 40 - 40) =     29.13888  eV     1   --> A''            

 **************************************************************************

 **************************************************************************

                    xk=(   0.44666,   0.38103,   0.00000  )

     Band symmetry, C_s (m)     point group:

     e(  1 -  1) =    -44.21637  eV     1   --> A'             
     e(  2 -  2) =    -44.20658  eV     1   --> A''            
     e(  3 -  3) =    -20.60126  eV     1   --> A'             
     e(  4 -  4) =    -20.59047  eV     1   --> A'             
     e(  5 -  5) =    -20.57236  eV     1   --> A''            
     e(  6 -  6) =    -20.47690  eV     1   --> A'             
     e(  7 -  7) =    -20.46561  eV     1   --> A''            
     e(  8 -  8) =    -20.46124  eV     1   --> A''            
     e(  9 -  9) =     -0.76355  eV     1   --> A'             
     e( 10 - 10) =     -0.48390  eV     1   --> A'             
     e( 11 - 11) =      5.79453  eV     1   --> A'             
     e( 12 - 12) =      7.02906  eV     1   --> A'             
     e( 13 - 13) =      7.61403  eV     1   --> A''            
     e( 14 - 14) =      8.23998  eV     1   --> A''            
     e( 15 - 15) =      8.77495  eV     1   --> A'             
     e( 16 - 16) =      9.24119  eV     1   --> A'             
     e( 17 - 17) =     11.99306  eV     1   --> A'             
     e( 18 - 18) =     12.35402  eV     1   --> A''            
     e( 19 - 19) =     13.70217  eV     1   --> A''            
     e( 20 - 20) =     14.67389  eV     1   --> A'             
     e( 21 - 21) =     15.03585  eV     1   --> A'             
     e( 22 - 22) =     15.05583  eV     1   --> A''            
     e( 23 - 23) =     15.13323  eV     1   --> A''            
     e( 24 - 24) =     15.85758  eV     1   --> A'             
     e( 25 - 25) =     16.36596  eV     1   --> A'             
     e( 26 - 26) =     16.77260  eV     1   --> A''            
     e( 27 - 27) =     18.37072  eV     1   --> A'             
     e( 28 - 28) =     18.73990  eV     1   --> A''            
     e( 29 - 29) =     19.04269  eV     1   --> A''            
     e( 30 - 30) =     19.93846  eV     1   --> A'             
     e( 31 - 31) =     20.57555  eV     1   --> A'             
     e( 32 - 32) =     20.90934  eV     1   --> A''            
     e( 33 - 33) =     23.36963  eV     1   --> A'             
     e( 34 - 34) =     25.46599  eV     1   --> A''            
     e( 35 - 35) =     26.62297  eV     1   --> A'             
     e( 36 - 36) =     26.64296  eV     1   --> A'             
     e( 37 - 37) =     27.83102  eV     1   --> A'             
     e( 38 - 38) =     28.92345  eV     1   --> A'             
     e( 39 - 39) =     28.96267  eV     1   --> A''            
     e( 40 - 40) =     29.21291  eV     1   --> A''            

 **************************************************************************

 **************************************************************************

                    xk=(   0.44332,   0.38681,   0.00000  )

     Band symmetry, C_s (m)     point group:

     e(  1 -  1) =    -44.21631  eV     1   --> A'             
     e(  2 -  2) =    -44.20652  eV     1   --> A''            
     e(  3 -  3) =    -20.60052  eV     1   --> A'             
     e(  4 -  4) =    -20.59023  eV     1   --> A'             
     e(  5 -  5) =    -20.57160  eV     1   --> A''            
     e(  6 -  6) =    -20.47845  eV     1   --> A'             
     e(  7 -  7) =    -20.46553  eV     1   --> A''            
     e(  8 -  8) =    -20.46266  eV     1   --> A''            
     e(  9 -  9) =     -0.75608  eV     1   --> A'             
     e( 10 - 10) =     -0.48273  eV     1   --> A'             
     e( 11 - 11) =      5.81099  eV     1   --> A'             
     e( 12 - 12) =      7.02987  eV     1   --> A'             
     e( 13 - 13) =      7.62440  eV     1   --> A''            
     e( 14 - 14) =      8.23376  eV     1   --> A''            
     e( 15 - 15) =      8.75791  eV     1   --> A'             
     e( 16 - 16) =      9.16075  eV     1   --> A'             
     e( 17 - 17) =     12.05449  eV     1   --> A'             
     e( 18 - 18) =     12.36948  eV     1   --> A''            
     e( 19 - 19) =     13.69168  eV     1   --> A''            
     e( 20 - 20) =     14.64692  eV     1   --> A'             
     e( 21 - 21) =     15.02265  eV     1   --> A'             
     e( 22 - 22) =     15.06165  eV     1   --> A''            
     e( 23 - 23) =     15.13147  eV     1   --> A''            
     e( 24 - 24) =     15.86851  eV     1   --> A'             
     e( 25 - 25) =     16.33861  eV     1   --> A'             
     e( 26 - 26) =     16.76332  eV     1   --> A''            
     e( 27 - 27) =     18.46121  eV     1   --> A'             
     e( 28 - 28) =     18.67389  eV     1   --> A''            
     e( 29 - 29) =     19.09261  eV     1   --> A''            
     e( 30 - 30) =     19.99159  eV     1   --> A'             
     e( 31 - 31) =     20.62977  eV     1   --> A'             
     e( 32 - 32) =     20.92798  eV     1   --> A''            
     e( 33 - 33) =     23.31869  eV     1   --> A'             
     e( 34 - 34) =     25.35950  eV     1   --> A''            
     e( 35 - 35) =     26.52652  eV     1   --> A'             
     e( 36 - 36) =     26.56385  eV     1   --> A'             
     e( 37 - 37) =     27.80565  eV     1   --> A'             
     e( 38 - 38) =     28.88963  eV     1   --> A'             
     e( 39 - 39) =     29.05231  eV     1   --> A''            
     e( 40 - 40) =     29.29053  eV     1   --> A''            

 **************************************************************************

 **************************************************************************

                    xk=(   0.43999,   0.39258,   0.00000  )

     Band symmetry, C_s (m)     point group:

     e(  1 -  1) =    -44.21625  eV     1   --> A'             
     e(  2 -  2) =    -44.20647  eV     1   --> A''            
     e(  3 -  3) =    -20.59976  eV     1   --> A'             
     e(  4 -  4) =    -20.58996  eV     1   --> A'             
     e(  5 -  5) =    -20.57081  eV     1   --> A''            
     e(  6 -  6) =    -20.48008  eV     1   --> A'             
     e(  7 -  7) =    -20.46545  eV     1   --> A''            
     e(  8 -  8) =    -20.46415  eV     1   --> A''            
     e(  9 -  9) =     -0.74827  eV     1   --> A'             
     e( 10 - 10) =     -0.48153  eV     1   --> A'             
     e( 11 - 11) =      5.82839  eV     1   --> A'             
     e( 12 - 12) =      7.03068  eV     1   --> A'             
     e( 13 - 13) =      7.63524  eV     1   --> A''            
     e( 14 - 14) =      8.22727  eV     1   --> A''            
     e( 15 - 15) =      8.74029  eV     1   --> A'             
     e( 16 - 16) =      9.07992  eV     1   --> A'             
     e( 17 - 17) =     12.11580  eV     1   --> A'             
     e( 18 - 18) =     12.38573  eV     1   --> A''            
     e( 19 - 19) =     13.68027  eV     1   --> A''            
     e( 20 - 20) =     14.61927  eV     1   --> A'             
     e( 21 - 21) =     15.00844  eV     1   --> A'             
     e( 22 - 22) =     15.06872  eV     1   --> A''            
     e( 23 - 23) =     15.12959  eV     1   --> A''            
     e( 24 - 24) =     15.87971  eV     1   --> A'             
     e( 25 - 25) =     16.31302  eV     1   --> A'             
     e( 26 - 26) =     16.75338  eV     1   --> A''            
     e( 27 - 27) =     18.55216  eV     1   --> A'             
     e( 28 - 28) =     18.60727  eV     1   --> A''            
     e( 29 - 29) =     19.14468  eV     1   --> A''            
     e( 30 - 30) =     20.04805  eV     1   --> A'             
     e( 31 - 31) =     20.68698  eV     1   --> A'             
     e( 32 - 32) =     20.94550  eV     1   --> A''            
     e( 33 - 33) =     23.26608  eV     1   --> A'             
     e( 34 - 34) =     25.25306  eV     1   --> A''            
     e( 35 - 35) =     26.41066  eV     1   --> A'             
     e( 36 - 36) =     26.49863  eV     1   --> A'             
     e( 37 - 37) =     27.78475  eV     1   --> A'             
     e( 38 - 38) =     28.85305  eV     1   --> A'             
     e( 39 - 39) =     29.14082  eV     1   --> A''            
     e( 40 - 40) =     29.37151  eV     1   --> A''            

 **************************************************************************

 **************************************************************************

                    xk=(   0.43665,   0.39835,   0.00000  )

     Band symmetry, C_s (m)     point group:

     e(  1 -  1) =    -44.21618  eV     1   --> A'             
     e(  2 -  2) =    -44.20641  eV     1   --> A''            
     e(  3 -  3) =    -20.59898  eV     1   --> A'             
     e(  4 -  4) =    -20.58965  eV     1   --> A'             
     e(  5 -  5) =    -20.56996  eV     1   --> A''            
     e(  6 -  6) =    -20.48178  eV     1   --> A'             
     e(  7 -  7) =    -20.46571  eV     1   --> A''            
     e(  8 -  8) =    -20.46536  eV     1   --> A''            
     e(  9 -  9) =     -0.74013  eV     1   --> A'             
     e( 10 - 10) =     -0.48030  eV     1   --> A'             
     e( 11 - 11) =      5.84675  eV     1   --> A'             
     e( 12 - 12) =      7.03150  eV     1   --> A'             
     e( 13 - 13) =      7.64655  eV     1   --> A''            
     e( 14 - 14) =      8.22054  eV     1   --> A''            
     e( 15 - 15) =      8.72216  eV     1   --> A'             
     e( 16 - 16) =      8.99886  eV     1   --> A'             
     e( 17 - 17) =     12.17693  eV     1   --> A'             
     e( 18 - 18) =     12.40278  eV     1   --> A''            
     e( 19 - 19) =     13.66795  eV     1   --> A''            
     e( 20 - 20) =     14.59105  eV     1   --> A'             
     e( 21 - 21) =     14.99323  eV     1   --> A'             
     e( 22 - 22) =     15.07710  eV     1   --> A''            
     e( 23 - 23) =     15.12757  eV     1   --> A''            
     e( 24 - 24) =     15.89114  eV     1   --> A'             
     e( 25 - 25) =     16.28910  eV     1   --> A'             
     e( 26 - 26) =     16.74275  eV     1   --> A''            
     e( 27 - 27) =     18.54033  eV     1   --> A''            
     e( 28 - 28) =     18.64342  eV     1   --> A'             
     e( 29 - 29) =     19.19881  eV     1   --> A''            
     e( 30 - 30) =     20.10786  eV     1   --> A'             
     e( 31 - 31) =     20.74709  eV     1   --> A'             
     e( 32 - 32) =     20.96184  eV     1   --> A''            
     e( 33 - 33) =     23.21197  eV     1   --> A'             
     e( 34 - 34) =     25.14681  eV     1   --> A''            
     e( 35 - 35) =     26.29542  eV     1   --> A'             
     e( 36 - 36) =     26.42776  eV     1   --> A'             
     e( 37 - 37) =     27.76793  eV     1   --> A'             
     e( 38 - 38) =     28.81405  eV     1   --> A'             
     e( 39 - 39) =     29.22822  eV     1   --> A''            
     e( 40 - 40) =     29.45560  eV     1   --> A''            

 **************************************************************************

 **************************************************************************

                    xk=(   0.43332,   0.40412,   0.00000  )

     Band symmetry, C_s (m)     point group:

     e(  1 -  1) =    -44.21610  eV     1   --> A'             
     e(  2 -  2) =    -44.20634  eV     1   --> A''            
     e(  3 -  3) =    -20.59818  eV     1   --> A'             
     e(  4 -  4) =    -20.58931  eV     1   --> A'             
     e(  5 -  5) =    -20.56908  eV     1   --> A''            
     e(  6 -  6) =    -20.48353  eV     1   --> A'             
     e(  7 -  7) =    -20.46732  eV     1   --> A''            
     e(  8 -  8) =    -20.46527  eV     1   --> A''            
     e(  9 -  9) =     -0.73167  eV     1   --> A'             
     e( 10 - 10) =     -0.47905  eV     1   --> A'             
     e( 11 - 11) =      5.86605  eV     1   --> A'             
     e( 12 - 12) =      7.03230  eV     1   --> A'             
     e( 13 - 13) =      7.65827  eV     1   --> A''            
     e( 14 - 14) =      8.21359  eV     1   --> A''            
     e( 15 - 15) =      8.70359  eV     1   --> A'             
     e( 16 - 16) =      8.91771  eV     1   --> A'             
     e( 17 - 17) =     12.23786  eV     1   --> A'             
     e( 18 - 18) =     12.42060  eV     1   --> A''            
     e( 19 - 19) =     13.65472  eV     1   --> A''            
     e( 20 - 20) =     14.56241  eV     1   --> A'             
     e( 21 - 21) =     14.97700  eV     1   --> A'             
     e( 22 - 22) =     15.08686  eV     1   --> A''            
     e( 23 - 23) =     15.12542  eV     1   --> A''            
     e( 24 - 24) =     15.90271  eV     1   --> A'             
     e( 25 - 25) =     16.26678  eV     1   --> A'             
     e( 26 - 26) =     16.73143  eV     1   --> A''            
     e( 27 - 27) =     18.47328  eV     1   --> A''            
     e( 28 - 28) =     18.73482  eV     1   --> A'             
     e( 29 - 29) =     19.25488  eV     1   --> A''            
     e( 30 - 30) =     20.17105  eV     1   --> A'             
     e( 31 - 31) =     20.81002  eV     1   --> A'             
     e( 32 - 32) =     20.97700  eV     1   --> A''            
     e( 33 - 33) =     23.15654  eV     1   --> A'             
     e( 34 - 34) =     25.04084  eV     1   --> A''            
     e( 35 - 35) =     26.18088  eV     1   --> A'             
     e( 36 - 36) =     26.35187  eV     1   --> A'             
     e( 37 - 37) =     27.75475  eV     1   --> A'             
     e( 38 - 38) =     28.77307  eV     1   --> A'             
     e( 39 - 39) =     29.31442  eV     1   --> A''            
     e( 40 - 40) =     29.54255  eV     1   --> A''            

 **************************************************************************

 **************************************************************************

                    xk=(   0.42999,   0.40989,   0.00000  )

     Band symmetry, C_s (m)     point group:

     e(  1 -  1) =    -44.21603  eV     1   --> A'             
     e(  2 -  2) =    -44.20628  eV     1   --> A''            
     e(  3 -  3) =    -20.59738  eV     1   --> A'             
     e(  4 -  4) =    -20.58892  eV     1   --> A'             
     e(  5 -  5) =    -20.56815  eV     1   --> A''            
     e(  6 -  6) =    -20.48537  eV     1   --> A'             
     e(  7 -  7) =    -20.46900  eV     1   --> A''            
     e(  8 -  8) =    -20.46518  eV     1   --> A''            
     e(  9 -  9) =     -0.72292  eV     1   --> A'             
     e( 10 - 10) =     -0.47780  eV     1   --> A'             
     e( 11 - 11) =      5.88627  eV     1   --> A'             
     e( 12 - 12) =      7.03309  eV     1   --> A'             
     e( 13 - 13) =      7.67038  eV     1   --> A''            
     e( 14 - 14) =      8.20643  eV     1   --> A''            
     e( 15 - 15) =      8.68466  eV     1   --> A'             
     e( 16 - 16) =      8.83658  eV     1   --> A'             
     e( 17 - 17) =     12.29854  eV     1   --> A'             
     e( 18 - 18) =     12.43914  eV     1   --> A''            
     e( 19 - 19) =     13.64061  eV     1   --> A''            
     e( 20 - 20) =     14.53341  eV     1   --> A'             
     e( 21 - 21) =     14.95977  eV     1   --> A'             
     e( 22 - 22) =     15.09804  eV     1   --> A''            
     e( 23 - 23) =     15.12313  eV     1   --> A''            
     e( 24 - 24) =     15.91436  eV     1   --> A'             
     e( 25 - 25) =     16.24598  eV     1   --> A'             
     e( 26 - 26) =     16.71936  eV     1   --> A''            
     e( 27 - 27) =     18.40632  eV     1   --> A''            
     e( 28 - 28) =     18.82621  eV     1   --> A'             
     e( 29 - 29) =     19.31277  eV     1   --> A''            
     e( 30 - 30) =     20.23763  eV     1   --> A'             
     e( 31 - 31) =     20.87566  eV     1   --> A'             
     e( 32 - 32) =     20.99091  eV     1   --> A''            
     e( 33 - 33) =     23.09991  eV     1   --> A'             
     e( 34 - 34) =     24.93520  eV     1   --> A''            
     e( 35 - 35) =     26.06700  eV     1   --> A'             
     e( 36 - 36) =     26.27136  eV     1   --> A'             
     e( 37 - 37) =     27.74469  eV     1   --> A'             
     e( 38 - 38) =     28.73032  eV     1   --> A'             
     e( 39 - 39) =     29.39927  eV     1   --> A''            
     e( 40 - 40) =     29.63205  eV     1   --> A''            

 **************************************************************************

 **************************************************************************

                    xk=(   0.42665,   0.41567,   0.00000  )

     Band symmetry, C_s (m)     point group:

     e(  1 -  1) =    -44.21596  eV     1   --> A'             
     e(  2 -  2) =    -44.20621  eV     1   --> A''            
     e(  3 -  3) =    -20.59659  eV     1   --> A'             
     e(  4 -  4) =    -20.58848  eV     1   --> A'             
     e(  5 -  5) =    -20.56719  eV     1   --> A''            
     e(  6 -  6) =    -20.48726  eV     1   --> A'             
     e(  7 -  7) =    -20.47074  eV     1   --> A''            
     e(  8 -  8) =    -20.46509  eV     1   --> A''            
     e(  9 -  9) =     -0.71390  eV     1   --> A'             
     e( 10 - 10) =     -0.47655  eV     1   --> A'             
     e( 11 - 11) =      5.90741  eV     1   --> A'             
     e( 12 - 12) =      7.03385  eV     1   --> A'             
     e( 13 - 13) =      7.68286  eV     1   --> A''            
     e( 14 - 14) =      8.19910  eV     1   --> A''            
     e( 15 - 15) =      8.66544  eV     1   --> A'             
     e( 16 - 16) =      8.75559  eV     1   --> A'             
     e( 17 - 17) =     12.35897  eV     1   --> A'             
     e( 18 - 18) =     12.45837  eV     1   --> A''            
     e( 19 - 19) =     13.62563  eV     1   --> A''            
     e( 20 - 20) =     14.50417  eV     1   --> A'             
     e( 21 - 21) =     14.94154  eV     1   --> A'             
     e( 22 - 22) =     15.11066  eV     1   --> A''            
     e( 23 - 23) =     15.12071  eV     1   --> A''            
     e( 24 - 24) =     15.92601  eV     1   --> A'             
     e( 25 - 25) =     16.22663  eV     1   --> A'             
     e( 26 - 26) =     16.70653  eV     1   --> A''            
     e( 27 - 27) =     18.33967  eV     1   --> A''            
     e( 28 - 28) =     18.91744  eV     1   --> A'             
     e( 29 - 29) =     19.37236  eV     1   --> A''            
     e( 30 - 30) =     20.30760  eV     1   --> A'             
     e( 31 - 31) =     20.94388  eV     1   --> A'             
     e( 32 - 32) =     21.00358  eV     1   --> A''            
     e( 33 - 33) =     23.04225  eV     1   --> A'             
     e( 34 - 34) =     24.83000  eV     1   --> A''            
     e( 35 - 35) =     25.95385  eV     1   --> A'             
     e( 36 - 36) =     26.18689  eV     1   --> A'             
     e( 37 - 37) =     27.73727  eV     1   --> A'             
     e( 38 - 38) =     28.68623  eV     1   --> A'             
     e( 39 - 39) =     29.48275  eV     1   --> A''            
     e( 40 - 40) =     29.72378  eV     1   --> A''            

 **************************************************************************

 **************************************************************************

                    xk=(   0.42332,   0.42144,   0.00000  )

     Band symmetry, C_s (m)     point group:

     e(  1 -  1) =    -44.21589  eV     1   --> A'             
     e(  2 -  2) =    -44.20614  eV     1   --> A''            
     e(  3 -  3) =    -20.59582  eV     1   --> A'             
     e(  4 -  4) =    -20.58797  eV     1   --> A'             
     e(  5 -  5) =    -20.56618  eV     1   --> A''            
     e(  6 -  6) =    -20.48922  eV     1   --> A'             
     e(  7 -  7) =    -20.47253  eV     1   --> A''            
     e(  8 -  8) =    -20.46499  eV     1   --> A''            
     e(  9 -  9) =     -0.70464  eV     1   --> A'             
     e( 10 - 10) =     -0.47530  eV     1   --> A'             
     e( 11 - 11) =      5.92946  eV     1   --> A'             
     e( 12 - 12) =      7.03458  eV     1   --> A'             
     e( 13 - 13) =      7.69566  eV     1   --> A''            
     e( 14 - 14) =      8.19160  eV     1   --> A''            
     e( 15 - 15) =      8.64601  eV     1   --> A'             
     e( 16 - 16) =      8.67485  eV     1   --> A'             
     e( 17 - 17) =     12.41914  eV     1   --> A'             
     e( 18 - 18) =     12.47827  eV     1   --> A''            
     e( 19 - 19) =     13.60983  eV     1   --> A''            
     e( 20 - 20) =     14.47480  eV     1   --> A'             
     e( 21 - 21) =     14.92233  eV     1   --> A'             
     e( 22 - 22) =     15.11814  eV     1   --> A''            
     e( 23 - 23) =     15.12475  eV     1   --> A''            
     e( 24 - 24) =     15.93759  eV     1   --> A'             
     e( 25 - 25) =     16.20866  eV     1   --> A'             
     e( 26 - 26) =     16.69289  eV     1   --> A''            
     e( 27 - 27) =     18.27354  eV     1   --> A''            
     e( 28 - 28) =     19.00838  eV     1   --> A'             
     e( 29 - 29) =     19.43355  eV     1   --> A''            
     e( 30 - 30) =     20.38096  eV     1   --> A'             
     e( 31 - 31) =     21.01454  eV     1   --> A'             
     e( 32 - 32) =     21.01503  eV     1   --> A''            
     e( 33 - 33) =     22.98373  eV     1   --> A'             
     e( 34 - 34) =     24.72532  eV     1   --> A''            
     e( 35 - 35) =     25.84148  eV     1   --> A'             
     e( 36 - 36) =     26.09899  eV     1   --> A'             
     e( 37 - 37) =     27.73203  eV     1   --> A'             
     e( 38 - 38) =     28.64113  eV     1   --> A'             
     e( 39 - 39) =     29.56481  eV     1   --> A''            
     e( 40 - 40) =     29.81740  eV     1   --> A''            

 **************************************************************************

 **************************************************************************

                    xk=(   0.41998,   0.42721,   0.00000  )

     Band symmetry, C_s (m)     point group:

     e(  1 -  1) =    -44.21583  eV     1   --> A'             
     e(  2 -  2) =    -44.20607  eV     1   --> A''            
     e(  3 -  3) =    -20.59509  eV     1   --> A'             
     e(  4 -  4) =    -20.58739  eV     1   --> A'             
     e(  5 -  5) =    -20.56514  eV     1   --> A''            
     e(  6 -  6) =    -20.49123  eV     1   --> A'             
     e(  7 -  7) =    -20.47437  eV     1   --> A''            
     e(  8 -  8) =    -20.46490  eV     1   --> A''            
     e(  9 -  9) =     -0.69515  eV     1   --> A'             
     e( 10 - 10) =     -0.47407  eV     1   --> A'             
     e( 11 - 11) =      5.95241  eV     1   --> A'             
     e( 12 - 12) =      7.03526  eV     1   --> A'             
     e( 13 - 13) =      7.70876  eV     1   --> A''            
     e( 14 - 14) =      8.18395  eV     1   --> A''            
     e( 15 - 15) =      8.59446  eV     1   --> A'             
     e( 16 - 16) =      8.62644  eV     1   --> A'             
     e( 17 - 17) =     12.47905  eV     1   --> A'             
     e( 18 - 18) =     12.49878  eV     1   --> A''            
     e( 19 - 19) =     13.59325  eV     1   --> A''            
     e( 20 - 20) =     14.44537  eV     1   --> A'             
     e( 21 - 21) =     14.90214  eV     1   --> A'             
     e( 22 - 22) =     15.11545  eV     1   --> A''            
     e( 23 - 23) =     15.14030  eV     1   --> A''            
     e( 24 - 24) =     15.94906  eV     1   --> A'             
     e( 25 - 25) =     16.19201  eV     1   --> A'             
     e( 26 - 26) =     16.67841  eV     1   --> A''            
     e( 27 - 27) =     18.20814  eV     1   --> A''            
     e( 28 - 28) =     19.09888  eV     1   --> A'             
     e( 29 - 29) =     19.49621  eV     1   --> A''            
     e( 30 - 30) =     20.45769  eV     1   --> A'             
     e( 31 - 31) =     21.02524  eV     1   --> A''            
     e( 32 - 32) =     21.08748  eV     1   --> A'             
     e( 33 - 33) =     22.92450  eV     1   --> A'             
     e( 34 - 34) =     24.62125  eV     1   --> A''            
     e( 35 - 35) =     25.72990  eV     1   --> A'             
     e( 36 - 36) =     26.00814  eV     1   --> A'             
     e( 37 - 37) =     27.72855  eV     1   --> A'             
     e( 38 - 38) =     28.59532  eV     1   --> A'             
     e( 39 - 39) =     29.64538  eV     1   --> A''            
     e( 40 - 40) =     29.77666  eV     1   --> A'             

 **************************************************************************

 **************************************************************************

                    xk=(   0.41665,   0.43298,   0.00000  )

     Band symmetry, C_s (m)     point group:

     e(  1 -  1) =    -44.21576  eV     1   --> A'             
     e(  2 -  2) =    -44.20600  eV     1   --> A''            
     e(  3 -  3) =    -20.59440  eV     1   --> A'             
     e(  4 -  4) =    -20.58671  eV     1   --> A'             
     e(  5 -  5) =    -20.56406  eV     1   --> A''            
     e(  6 -  6) =    -20.49329  eV     1   --> A'             
     e(  7 -  7) =    -20.47626  eV     1   --> A''            
     e(  8 -  8) =    -20.46480  eV     1   --> A''            
     e(  9 -  9) =     -0.68547  eV     1   --> A'             
     e( 10 - 10) =     -0.47286  eV     1   --> A'             
     e( 11 - 11) =      5.97625  eV     1   --> A'             
     e( 12 - 12) =      7.03590  eV     1   --> A'             
     e( 13 - 13) =      7.72212  eV     1   --> A''            
     e( 14 - 14) =      8.17619  eV     1   --> A''            
     e( 15 - 15) =      8.51452  eV     1   --> A'             
     e( 16 - 16) =      8.60683  eV     1   --> A'             
     e( 17 - 17) =     12.51990  eV     1   --> A''            
     e( 18 - 18) =     12.53869  eV     1   --> A'             
     e( 19 - 19) =     13.57594  eV     1   --> A''            
     e( 20 - 20) =     14.41598  eV     1   --> A'             
     e( 21 - 21) =     14.88100  eV     1   --> A'             
     e( 22 - 22) =     15.11261  eV     1   --> A''            
     e( 23 - 23) =     15.15732  eV     1   --> A''            
     e( 24 - 24) =     15.96033  eV     1   --> A'             
     e( 25 - 25) =     16.17662  eV     1   --> A'             
     e( 26 - 26) =     16.66305  eV     1   --> A''            
     e( 27 - 27) =     18.14366  eV     1   --> A''            
     e( 28 - 28) =     19.18884  eV     1   --> A'             
     e( 29 - 29) =     19.56022  eV     1   --> A''            
     e( 30 - 30) =     20.53775  eV     1   --> A'             
     e( 31 - 31) =     21.03426  eV     1   --> A''            
     e( 32 - 32) =     21.16250  eV     1   --> A'             
     e( 33 - 33) =     22.86475  eV     1   --> A'             
     e( 34 - 34) =     24.51786  eV     1   --> A''            
     e( 35 - 35) =     25.61918  eV     1   --> A'             
     e( 36 - 36) =     25.91482  eV     1   --> A'             
     e( 37 - 37) =     27.72645  eV     1   --> A'             
     e( 38 - 38) =     28.54920  eV     1   --> A'             
     e( 39 - 39) =     29.70241  eV     1   --> A'             
     e( 40 - 40) =     29.72445  eV     1   --> A''            

 **************************************************************************

 **************************************************************************

                    xk=(   0.41332,   0.43876,   0.00000  )

     Band symmetry, C_s (m)     point group:

     e(  1 -  1) =    -44.21569  eV     1   --> A'             
     e(  2 -  2) =    -44.20593  eV     1   --> A''            
     e(  3 -  3) =    -20.59376  eV     1   --> A'             
     e(  4 -  4) =    -20.58594  eV     1   --> A'             
     e(  5 -  5) =    -20.56294  eV     1   --> A''            
     e(  6 -  6) =    -20.49540  eV     1   --> A'             
     e(  7 -  7) =    -20.47819  eV     1   --> A''            
     e(  8 -  8) =    -20.46470  eV     1   --> A''            
     e(  9 -  9) =     -0.67562  eV     1   --> A'             
     e( 10 - 10) =     -0.47168  eV     1   --> A'             
     e( 11 - 11) =      6.00096  eV     1   --> A'             
     e( 12 - 12) =      7.03648  eV     1   --> A'             
     e( 13 - 13) =      7.73569  eV     1   --> A''            
     e( 14 - 14) =      8.16833  eV     1   --> A''            
     e( 15 - 15) =      8.43514  eV     1   --> A'             
     e( 16 - 16) =      8.58723  eV     1   --> A'             
     e( 17 - 17) =     12.54156  eV     1   --> A''            
     e( 18 - 18) =     12.59807  eV     1   --> A'             
     e( 19 - 19) =     13.55795  eV     1   --> A''            
     e( 20 - 20) =     14.38670  eV     1   --> A'             
     e( 21 - 21) =     14.85892  eV     1   --> A'             
     e( 22 - 22) =     15.10965  eV     1   --> A''            
     e( 23 - 23) =     15.17579  eV     1   --> A''            
     e( 24 - 24) =     15.97137  eV     1   --> A'             
     e( 25 - 25) =     16.16242  eV     1   --> A'             
     e( 26 - 26) =     16.64676  eV     1   --> A''            
     e( 27 - 27) =     18.08031  eV     1   --> A''            
     e( 28 - 28) =     19.27816  eV     1   --> A'             
     e( 29 - 29) =     19.62548  eV     1   --> A''            
     e( 30 - 30) =     20.62111  eV     1   --> A'             
     e( 31 - 31) =     21.04209  eV     1   --> A''            
     e( 32 - 32) =     21.23937  eV     1   --> A'             
     e( 33 - 33) =     22.80467  eV     1   --> A'             
     e( 34 - 34) =     24.41524  eV     1   --> A''            
     e( 35 - 35) =     25.50936  eV     1   --> A'             
     e( 36 - 36) =     25.81942  eV     1   --> A'             
     e( 37 - 37) =     27.72545  eV     1   --> A'             
     e( 38 - 38) =     28.50304  eV     1   --> A'             
     e( 39 - 39) =     29.62568  eV     1   --> A'             
     e( 40 - 40) =     29.80196  eV     1   --> A''            

 **************************************************************************

 **************************************************************************

                    xk=(   0.40998,   0.44453,   0.00000  )

     Band symmetry, C_s (m)     point group:

     e(  1 -  1) =    -44.21562  eV     1   --> A'             
     e(  2 -  2) =    -44.20584  eV     1   --> A''            
[...]

 **************************************************************************

                    xk=(   0.37000,   0.21362,   0.25043  )

     zone border point and non-symmorphic group 
     symmetry decomposition not available

 **************************************************************************

 **************************************************************************

                    xk=(   0.38000,   0.21939,   0.25043  )

     zone border point and non-symmorphic group 
     symmetry decomposition not available

 **************************************************************************

 **************************************************************************

                    xk=(   0.39000,   0.22517,   0.25043  )

     zone border point and non-symmorphic group 
     symmetry decomposition not available

 **************************************************************************

 **************************************************************************

                    xk=(   0.40000,   0.23094,   0.25043  )

     zone border point and non-symmorphic group 
     symmetry decomposition not available

 **************************************************************************

 **************************************************************************

                    xk=(   0.41000,   0.23671,   0.25043  )

     zone border point and non-symmorphic group 
     symmetry decomposition not available

 **************************************************************************

 **************************************************************************

                    xk=(   0.42000,   0.24249,   0.25043  )

     zone border point and non-symmorphic group 
     symmetry decomposition not available

 **************************************************************************

 **************************************************************************

                    xk=(   0.43000,   0.24826,   0.25043  )

     zone border point and non-symmorphic group 
     symmetry decomposition not available

 **************************************************************************

 **************************************************************************

                    xk=(   0.44000,   0.25403,   0.25043  )

     zone border point and non-symmorphic group 
     symmetry decomposition not available

 **************************************************************************

 **************************************************************************

                    xk=(   0.45000,   0.25981,   0.25043  )

     zone border point and non-symmorphic group 
     symmetry decomposition not available

 **************************************************************************

 **************************************************************************

                    xk=(   0.46000,   0.26558,   0.25043  )

     zone border point and non-symmorphic group 
     symmetry decomposition not available

 **************************************************************************

 **************************************************************************

                    xk=(   0.47000,   0.27135,   0.25043  )

     zone border point and non-symmorphic group 
     symmetry decomposition not available

 **************************************************************************

 **************************************************************************

                    xk=(   0.48000,   0.27713,   0.25043  )

     zone border point and non-symmorphic group 
     symmetry decomposition not available

 **************************************************************************

 **************************************************************************

                    xk=(   0.49000,   0.28290,   0.25043  )

     zone border point and non-symmorphic group 
     symmetry decomposition not available

 **************************************************************************

 **************************************************************************

                    xk=(   0.50000,   0.28868,   0.25043  )

     zone border point and non-symmorphic group 
     symmetry decomposition not available

 **************************************************************************

 **************************************************************************

                    xk=(   0.49667,   0.29445,   0.25043  )

     zone border point and non-symmorphic group 
     symmetry decomposition not available

 **************************************************************************

 **************************************************************************

                    xk=(   0.49333,   0.30022,   0.25043  )

     zone border point and non-symmorphic group 
     symmetry decomposition not available

 **************************************************************************

 **************************************************************************

                    xk=(   0.49000,   0.30599,   0.25043  )

     zone border point and non-symmorphic group 
     symmetry decomposition not available

 **************************************************************************

 **************************************************************************

                    xk=(   0.48666,   0.31176,   0.25043  )

     zone border point and non-symmorphic group 
     symmetry decomposition not available

 **************************************************************************

 **************************************************************************

                    xk=(   0.48333,   0.31754,   0.25043  )

     zone border point and non-symmorphic group 
     symmetry decomposition not available

 **************************************************************************

 **************************************************************************

                    xk=(   0.48000,   0.32331,   0.25043  )

     zone border point and non-symmorphic group 
     symmetry decomposition not available

 **************************************************************************

 **************************************************************************

                    xk=(   0.47666,   0.32908,   0.25043  )

     zone border point and non-symmorphic group 
     symmetry decomposition not available

 **************************************************************************

 **************************************************************************

                    xk=(   0.47333,   0.33485,   0.25043  )

     zone border point and non-symmorphic group 
     symmetry decomposition not available

 **************************************************************************

 **************************************************************************

                    xk=(   0.46999,   0.34063,   0.25043  )

     zone border point and non-symmorphic group 
     symmetry decomposition not available

 **************************************************************************

 **************************************************************************

                    xk=(   0.46666,   0.34640,   0.25043  )

     zone border point and non-symmorphic group 
     symmetry decomposition not available

 **************************************************************************

 **************************************************************************

                    xk=(   0.46333,   0.35217,   0.25043  )

     zone border point and non-symmorphic group 
     symmetry decomposition not available

 **************************************************************************

 **************************************************************************

                    xk=(   0.45999,   0.35794,   0.25043  )

     zone border point and non-symmorphic group 
     symmetry decomposition not available

 **************************************************************************

 **************************************************************************

                    xk=(   0.45666,   0.36372,   0.25043  )

     zone border point and non-symmorphic group 
     symmetry decomposition not available

 **************************************************************************

 **************************************************************************

                    xk=(   0.45332,   0.36949,   0.25043  )

     zone border point and non-symmorphic group 
     symmetry decomposition not available

 **************************************************************************

 **************************************************************************

                    xk=(   0.44999,   0.37526,   0.25043  )

     zone border point and non-symmorphic group 
     symmetry decomposition not available

 **************************************************************************

 **************************************************************************

                    xk=(   0.44666,   0.38103,   0.25043  )

     zone border point and non-symmorphic group 
     symmetry decomposition not available

 **************************************************************************

 **************************************************************************

                    xk=(   0.44332,   0.38681,   0.25043  )

     zone border point and non-symmorphic group 
     symmetry decomposition not available

 **************************************************************************

 **************************************************************************

                    xk=(   0.43999,   0.39258,   0.25043  )

     zone border point and non-symmorphic group 
     symmetry decomposition not available

 **************************************************************************

 **************************************************************************

                    xk=(   0.43665,   0.39835,   0.25043  )

     zone border point and non-symmorphic group 
     symmetry decomposition not available

 **************************************************************************

 **************************************************************************

                    xk=(   0.43332,   0.40412,   0.25043  )

     zone border point and non-symmorphic group 
     symmetry decomposition not available

 **************************************************************************

 **************************************************************************

                    xk=(   0.42999,   0.40989,   0.25043  )

     zone border point and non-symmorphic group 
     symmetry decomposition not available

 **************************************************************************

 **************************************************************************

                    xk=(   0.42665,   0.41567,   0.25043  )

     zone border point and non-symmorphic group 
     symmetry decomposition not available

 **************************************************************************

 **************************************************************************

                    xk=(   0.42332,   0.42144,   0.25043  )

     zone border point and non-symmorphic group 
     symmetry decomposition not available

 **************************************************************************

 **************************************************************************

                    xk=(   0.41998,   0.42721,   0.25043  )

     zone border point and non-symmorphic group 
     symmetry decomposition not available

 **************************************************************************

 **************************************************************************

                    xk=(   0.41665,   0.43298,   0.25043  )

     zone border point and non-symmorphic group 
     symmetry decomposition not available

 **************************************************************************

 **************************************************************************

                    xk=(   0.41332,   0.43876,   0.25043  )

     zone border point and non-symmorphic group 
     symmetry decomposition not available

 **************************************************************************

 **************************************************************************

                    xk=(   0.40998,   0.44453,   0.25043  )

     zone border point and non-symmorphic group 
     symmetry decomposition not available

 **************************************************************************

 **************************************************************************

                    xk=(   0.40665,   0.45030,   0.25043  )

     zone border point and non-symmorphic group 
     symmetry decomposition not available

 **************************************************************************

 **************************************************************************

                    xk=(   0.40331,   0.45607,   0.25043  )

     zone border point and non-symmorphic group 
     symmetry decomposition not available

 **************************************************************************

 **************************************************************************

                    xk=(   0.39998,   0.46185,   0.25043  )

     zone border point and non-symmorphic group 
     symmetry decomposition not available

 **************************************************************************

 **************************************************************************

                    xk=(   0.39665,   0.46762,   0.25043  )

     zone border point and non-symmorphic group 
     symmetry decomposition not available

 **************************************************************************

 **************************************************************************

                    xk=(   0.39331,   0.47339,   0.25043  )

     zone border point and non-symmorphic group 
     symmetry decomposition not available

 **************************************************************************

 **************************************************************************

                    xk=(   0.38998,   0.47916,   0.25043  )

     zone border point and non-symmorphic group 
     symmetry decomposition not available

 **************************************************************************

 **************************************************************************

                    xk=(   0.38664,   0.48493,   0.25043  )

     zone border point and non-symmorphic group 
     symmetry decomposition not available

 **************************************************************************

 **************************************************************************

                    xk=(   0.38331,   0.49071,   0.25043  )

     zone border point and non-symmorphic group 
     symmetry decomposition not available

 **************************************************************************

 **************************************************************************

                    xk=(   0.37998,   0.49648,   0.25043  )

     zone border point and non-symmorphic group 
     symmetry decomposition not available

 **************************************************************************

 **************************************************************************

                    xk=(   0.37664,   0.50225,   0.25043  )

     zone border point and non-symmorphic group 
     symmetry decomposition not available

 **************************************************************************

 **************************************************************************

                    xk=(   0.37331,   0.50802,   0.25043  )

     zone border point and non-symmorphic group 
     symmetry decomposition not available

 **************************************************************************

 **************************************************************************

                    xk=(   0.36997,   0.51380,   0.25043  )

     zone border point and non-symmorphic group 
     symmetry decomposition not available

 **************************************************************************

 **************************************************************************

                    xk=(   0.36664,   0.51957,   0.25043  )

     zone border point and non-symmorphic group 
     symmetry decomposition not available

 **************************************************************************

 **************************************************************************

                    xk=(   0.36331,   0.52534,   0.25043  )

     zone border point and non-symmorphic group 
     symmetry decomposition not available

 **************************************************************************

 **************************************************************************

                    xk=(   0.35997,   0.53111,   0.25043  )

     zone border point and non-symmorphic group 
     symmetry decomposition not available

 **************************************************************************

 **************************************************************************

                    xk=(   0.35664,   0.53689,   0.25043  )

     zone border point and non-symmorphic group 
     symmetry decomposition not available

 **************************************************************************

 **************************************************************************

                    xk=(   0.35330,   0.54266,   0.25043  )

     zone border point and non-symmorphic group 
     symmetry decomposition not available

 **************************************************************************

 **************************************************************************

                    xk=(   0.34997,   0.54843,   0.25043  )

     zone border point and non-symmorphic group 
     symmetry decomposition not available

 **************************************************************************

 **************************************************************************

                    xk=(   0.34664,   0.55420,   0.25043  )

     zone border point and non-symmorphic group 
     symmetry decomposition not available

 **************************************************************************

 **************************************************************************

                    xk=(   0.34330,   0.55998,   0.25043  )

     zone border point and non-symmorphic group 
     symmetry decomposition not available

 **************************************************************************

 **************************************************************************

                    xk=(   0.33997,   0.56575,   0.25043  )

     zone border point and non-symmorphic group 
     symmetry decomposition not available

 **************************************************************************

 **************************************************************************

                    xk=(   0.33663,   0.57152,   0.25043  )

     zone border point and non-symmorphic group 
     symmetry decomposition not available

 **************************************************************************

 **************************************************************************

                    xk=(   0.33330,   0.57729,   0.25043  )

     zone border point and non-symmorphic group 
     symmetry decomposition not available

 **************************************************************************

     BANDS        :   2m54.54s CPU   5m36.39s WALL


   This run was terminated on:   8: 2:34   1Dec2023            

=------------------------------------------------------------------------------=
   JOB DONE.
=------------------------------------------------------------------------------=
