
     Program BANDS v.7.1 starts on  6Oct2023 at  7:47: 3 

     This program is part of the open-source Quantum ESPRESSO suite
     for quantum simulation of materials; please cite
         "P. Giannozzi et al., J. Phys.:Condens. Matter 21 395502 (2009);
         "P. Giannozzi et al., J. Phys.:Condens. Matter 29 465901 (2017);
         "P. Giannozzi et al., J. Chem. Phys. 152 154105 (2020);
          URL http://www.quantum-espresso.org", 
     in publications or presentations arising from this work. More details at
     http://www.quantum-espresso.org/quote

     Parallel version (MPI & OpenMP), running on      60 processor cores
     Number of MPI processes:                30
     Threads/MPI process:                     2

     MPI processes distributed on     5 nodes
     R & G space division:  proc/nbgrp/npool/nimage =      30
     10911 MiB available memory on the printing compute node when the environment starts


     Reading xml data from directory:

     ./out/TiS.save/

     IMPORTANT: XC functional enforced from input :
     Exchange-correlation= PBE
                           (   1   4   3   4   0   0   0)
     Any further DFT definition will be discarded
     Please, verify this is what you really want


     Parallelization info
     --------------------
     sticks:   dense  smooth     PW     G-vecs:    dense   smooth      PW
     Min          24      24     14                 1094     1094     502
     Max          25      25     15                 1107     1107     517
     Sum         745     745    439                33091    33091   15285

     Using Slab Decomposition


     Check: negative core charge=   -0.000005

     negative rho (up, down):  7.860E-04 7.860E-04
     Reading collected, re-writing distributed wavefunctions
     high-symmetry point:  0.5000 0.2887 0.0000   x coordinate   0.0000
     high-symmetry point:  0.3333 0.5773 0.0000   x coordinate   0.3333
     high-symmetry point:  0.0000 0.0000 0.0000   x coordinate   0.9999
     high-symmetry point:  0.5000 0.2887 0.0000   x coordinate   1.5773
     high-symmetry point:  0.0000 0.0000 0.0000   x coordinate   2.1546
     high-symmetry point:  0.0000 0.0000 0.2504   x coordinate   2.4050
     high-symmetry point:  0.5000 0.2887 0.2504   x coordinate   2.9824
     high-symmetry point:  0.3333 0.5773 0.2504   x coordinate   3.3157

     Plottable bands (eV) written to file TiS.bands.gnu
     Bands written to file TiS.bands

 **************************************************************************

                    xk=(   0.50000,   0.28868,   0.00000  )

     point group C_1 (1)    
     there are  1 classes
     the character table:

       E    
A      1.00

     the symmetry operations in each class and the name of the first element:

     E        1
                                                                 

     Band symmetry, C_1 (1)     point group:

     e(  1 -  1) =    -44.21814  eV     1   --> A              
     e(  2 -  2) =    -44.20832  eV     1   --> A              
     e(  3 -  3) =    -20.60988  eV     1   --> A              
     e(  4 -  4) =    -20.59466  eV     1   --> A              
     e(  5 -  5) =    -20.58080  eV     1   --> A              
     e(  6 -  6) =    -20.46883  eV     1   --> A              
     e(  7 -  7) =    -20.46675  eV     1   --> A              
     e(  8 -  8) =    -20.45215  eV     1   --> A              
     e(  9 -  9) =     -0.82702  eV     1   --> A              
     e( 10 - 10) =     -0.49693  eV     1   --> A              
     e( 11 - 11) =      5.66163  eV     1   --> A              
     e( 12 - 12) =      7.01692  eV     1   --> A              
     e( 13 - 13) =      7.52615  eV     1   --> A              
     e( 14 - 14) =      8.28872  eV     1   --> A              
     e( 15 - 15) =      8.91960  eV     1   --> A              
     e( 16 - 16) =     10.16640  eV     1   --> A              
     e( 17 - 17) =     11.23105  eV     1   --> A              
     e( 18 - 18) =     12.22839  eV     1   --> A              
     e( 19 - 19) =     13.76535  eV     1   --> A              
     e( 20 - 20) =     14.91606  eV     1   --> A              
     e( 21 - 21) =     15.04669  eV     1   --> A              
     e( 22 - 22) =     15.12225  eV     1   --> A              
     e( 23 - 23) =     15.14301  eV     1   --> A              
     e( 24 - 24) =     15.75914  eV     1   --> A              
     e( 25 - 25) =     16.83577  eV     1   --> A              
     e( 26 - 26) =     17.08495  eV     1   --> A              
     e( 27 - 27) =     17.09511  eV     1   --> A              
     e( 28 - 28) =     18.61866  eV     1   --> A              
     e( 29 - 29) =     19.42352  eV     1   --> A              
     e( 30 - 30) =     19.52372  eV     1   --> A              
     e( 31 - 31) =     20.14199  eV     1   --> A              
     e( 32 - 32) =     20.62308  eV     1   --> A              
     e( 33 - 33) =     23.81481  eV     1   --> A              
     e( 34 - 34) =     26.84769  eV     1   --> A              
     e( 35 - 35) =     26.90624  eV     1   --> A              
     e( 36 - 36) =     27.70030  eV     1   --> A              
     e( 37 - 37) =     28.40097  eV     1   --> A              
     e( 38 - 38) =     28.44789  eV     1   --> A              
     e( 39 - 39) =     28.56211  eV     1   --> A              
     e( 40 - 40) =     28.73513  eV     1   --> A              

 **************************************************************************

 **************************************************************************

                    xk=(   0.49667,   0.29445,   0.00000  )

     Band symmetry, C_1 (1)     point group:

     e(  1 -  1) =    -44.21813  eV     1   --> A              
     e(  2 -  2) =    -44.20831  eV     1   --> A              
     e(  3 -  3) =    -20.60985  eV     1   --> A              
     e(  4 -  4) =    -20.59465  eV     1   --> A              
     e(  5 -  5) =    -20.58078  eV     1   --> A              
     e(  6 -  6) =    -20.46883  eV     1   --> A              
     e(  7 -  7) =    -20.46680  eV     1   --> A              
     e(  8 -  8) =    -20.45219  eV     1   --> A              
     e(  9 -  9) =     -0.82677  eV     1   --> A              
     e( 10 - 10) =     -0.49688  eV     1   --> A              
     e( 11 - 11) =      5.66213  eV     1   --> A              
     e( 12 - 12) =      7.01695  eV     1   --> A              
     e( 13 - 13) =      7.52650  eV     1   --> A              
     e( 14 - 14) =      8.28850  eV     1   --> A              
     e( 15 - 15) =      8.91897  eV     1   --> A              
     e( 16 - 16) =     10.15996  eV     1   --> A              
     e( 17 - 17) =     11.23675  eV     1   --> A              
     e( 18 - 18) =     12.22889  eV     1   --> A              
     e( 19 - 19) =     13.76515  eV     1   --> A              
     e( 20 - 20) =     14.91497  eV     1   --> A              
     e( 21 - 21) =     15.04655  eV     1   --> A              
     e( 22 - 22) =     15.12196  eV     1   --> A              
     e( 23 - 23) =     15.14296  eV     1   --> A              
     e( 24 - 24) =     15.75953  eV     1   --> A              
     e( 25 - 25) =     16.83551  eV     1   --> A              
     e( 26 - 26) =     17.02661  eV     1   --> A              
     e( 27 - 27) =     17.15578  eV     1   --> A              
     e( 28 - 28) =     18.62042  eV     1   --> A              
     e( 29 - 29) =     19.41973  eV     1   --> A              
     e( 30 - 30) =     19.52532  eV     1   --> A              
     e( 31 - 31) =     20.14368  eV     1   --> A              
     e( 32 - 32) =     20.62514  eV     1   --> A              
     e( 33 - 33) =     23.81282  eV     1   --> A              
     e( 34 - 34) =     26.83390  eV     1   --> A              
     e( 35 - 35) =     26.90592  eV     1   --> A              
     e( 36 - 36) =     27.71359  eV     1   --> A              
     e( 37 - 37) =     28.36149  eV     1   --> A              
     e( 38 - 38) =     28.44197  eV     1   --> A              
     e( 39 - 39) =     28.56478  eV     1   --> A              
     e( 40 - 40) =     28.77431  eV     1   --> A              

 **************************************************************************

 **************************************************************************

                    xk=(   0.49333,   0.30022,   0.00000  )

     Band symmetry, C_1 (1)     point group:

     e(  1 -  1) =    -44.21813  eV     1   --> A              
     e(  2 -  2) =    -44.20831  eV     1   --> A              
     e(  3 -  3) =    -20.60978  eV     1   --> A              
     e(  4 -  4) =    -20.59463  eV     1   --> A              
     e(  5 -  5) =    -20.58071  eV     1   --> A              
     e(  6 -  6) =    -20.46882  eV     1   --> A              
     e(  7 -  7) =    -20.46695  eV     1   --> A              
     e(  8 -  8) =    -20.45233  eV     1   --> A              
     e(  9 -  9) =     -0.82602  eV     1   --> A              
     e( 10 - 10) =     -0.49675  eV     1   --> A              
     e( 11 - 11) =      5.66366  eV     1   --> A              
     e( 12 - 12) =      7.01706  eV     1   --> A              
     e( 13 - 13) =      7.52755  eV     1   --> A              
     e( 14 - 14) =      8.28785  eV     1   --> A              
     e( 15 - 15) =      8.91709  eV     1   --> A              
     e( 16 - 16) =     10.14106  eV     1   --> A              
     e( 17 - 17) =     11.25343  eV     1   --> A              
     e( 18 - 18) =     12.23038  eV     1   --> A              
     e( 19 - 19) =     13.76456  eV     1   --> A              
     e( 20 - 20) =     14.91171  eV     1   --> A              
     e( 21 - 21) =     15.04615  eV     1   --> A              
     e( 22 - 22) =     15.12107  eV     1   --> A              
     e( 23 - 23) =     15.14282  eV     1   --> A              
     e( 24 - 24) =     15.76072  eV     1   --> A              
     e( 25 - 25) =     16.83471  eV     1   --> A              
     e( 26 - 26) =     16.96586  eV     1   --> A              
     e( 27 - 27) =     17.22350  eV     1   --> A              
     e( 28 - 28) =     18.62568  eV     1   --> A              
     e( 29 - 29) =     19.40845  eV     1   --> A              
     e( 30 - 30) =     19.53012  eV     1   --> A              
     e( 31 - 31) =     20.14874  eV     1   --> A              
     e( 32 - 32) =     20.63126  eV     1   --> A              
     e( 33 - 33) =     23.80686  eV     1   --> A              
     e( 34 - 34) =     26.79485  eV     1   --> A              
     e( 35 - 35) =     26.90491  eV     1   --> A              
     e( 36 - 36) =     27.75112  eV     1   --> A              
     e( 37 - 37) =     28.27315  eV     1   --> A              
     e( 38 - 38) =     28.42470  eV     1   --> A              
     e( 39 - 39) =     28.57276  eV     1   --> A              
     e( 40 - 40) =     28.86174  eV     1   --> A              

 **************************************************************************

 **************************************************************************

                    xk=(   0.49000,   0.30599,   0.00000  )

     Band symmetry, C_1 (1)     point group:

     e(  1 -  1) =    -44.21812  eV     1   --> A              
     e(  2 -  2) =    -44.20830  eV     1   --> A              
     e(  3 -  3) =    -20.60965  eV     1   --> A              
     e(  4 -  4) =    -20.59460  eV     1   --> A              
     e(  5 -  5) =    -20.58059  eV     1   --> A              
     e(  6 -  6) =    -20.46881  eV     1   --> A              
     e(  7 -  7) =    -20.46721  eV     1   --> A              
     e(  8 -  8) =    -20.45257  eV     1   --> A              
     e(  9 -  9) =     -0.82478  eV     1   --> A              
     e( 10 - 10) =     -0.49653  eV     1   --> A              
     e( 11 - 11) =      5.66620  eV     1   --> A              
     e( 12 - 12) =      7.01723  eV     1   --> A              
     e( 13 - 13) =      7.52929  eV     1   --> A              
     e( 14 - 14) =      8.28677  eV     1   --> A              
     e( 15 - 15) =      8.91396  eV     1   --> A              
     e( 16 - 16) =     10.11079  eV     1   --> A              
     e( 17 - 17) =     11.28002  eV     1   --> A              
     e( 18 - 18) =     12.23285  eV     1   --> A              
     e( 19 - 19) =     13.76357  eV     1   --> A              
     e( 20 - 20) =     14.90629  eV     1   --> A              
     e( 21 - 21) =     15.04551  eV     1   --> A              
     e( 22 - 22) =     15.11958  eV     1   --> A              
     e( 23 - 23) =     15.14258  eV     1   --> A              
     e( 24 - 24) =     15.76269  eV     1   --> A              
     e( 25 - 25) =     16.83339  eV     1   --> A              
     e( 26 - 26) =     16.90744  eV     1   --> A              
     e( 27 - 27) =     17.29350  eV     1   --> A              
     e( 28 - 28) =     18.63444  eV     1   --> A              
     e( 29 - 29) =     19.38998  eV     1   --> A              
     e( 30 - 30) =     19.53812  eV     1   --> A              
     e( 31 - 31) =     20.15717  eV     1   --> A              
     e( 32 - 32) =     20.64114  eV     1   --> A              
     e( 33 - 33) =     23.79696  eV     1   --> A              
     e( 34 - 34) =     26.73589  eV     1   --> A              
     e( 35 - 35) =     26.90308  eV     1   --> A              
     e( 36 - 36) =     27.80756  eV     1   --> A              
     e( 37 - 37) =     28.16698  eV     1   --> A              
     e( 38 - 38) =     28.39743  eV     1   --> A              
     e( 39 - 39) =     28.58603  eV     1   --> A              
     e( 40 - 40) =     28.96631  eV     1   --> A              

 **************************************************************************

 **************************************************************************

                    xk=(   0.48666,   0.31176,   0.00000  )

     Band symmetry, C_1 (1)     point group:

     e(  1 -  1) =    -44.21810  eV     1   --> A              
     e(  2 -  2) =    -44.20828  eV     1   --> A              
     e(  3 -  3) =    -20.60948  eV     1   --> A              
     e(  4 -  4) =    -20.59456  eV     1   --> A              
     e(  5 -  5) =    -20.58042  eV     1   --> A              
     e(  6 -  6) =    -20.46879  eV     1   --> A              
     e(  7 -  7) =    -20.46757  eV     1   --> A              
     e(  8 -  8) =    -20.45290  eV     1   --> A              
     e(  9 -  9) =     -0.82304  eV     1   --> A              
     e( 10 - 10) =     -0.49621  eV     1   --> A              
     e( 11 - 11) =      5.66975  eV     1   --> A              
     e( 12 - 12) =      7.01746  eV     1   --> A              
     e( 13 - 13) =      7.53172  eV     1   --> A              
     e( 14 - 14) =      8.28526  eV     1   --> A              
     e( 15 - 15) =      8.90960  eV     1   --> A              
     e( 16 - 16) =     10.07066  eV     1   --> A              
     e( 17 - 17) =     11.31502  eV     1   --> A              
     e( 18 - 18) =     12.23632  eV     1   --> A              
     e( 19 - 19) =     13.76215  eV     1   --> A              
     e( 20 - 20) =     14.89875  eV     1   --> A              
     e( 21 - 21) =     15.04468  eV     1   --> A              
     e( 22 - 22) =     15.11746  eV     1   --> A              
     e( 23 - 23) =     15.14226  eV     1   --> A              
     e( 24 - 24) =     15.76545  eV     1   --> A              
     e( 25 - 25) =     16.83154  eV     1   --> A              
     e( 26 - 26) =     16.85143  eV     1   --> A              
     e( 27 - 27) =     17.36566  eV     1   --> A              
     e( 28 - 28) =     18.64665  eV     1   --> A              
     e( 29 - 29) =     19.36475  eV     1   --> A              
     e( 30 - 30) =     19.54931  eV     1   --> A              
     e( 31 - 31) =     20.16897  eV     1   --> A              
     e( 32 - 32) =     20.65439  eV     1   --> A              
     e( 33 - 33) =     23.78320  eV     1   --> A              
     e( 34 - 34) =     26.66263  eV     1   --> A              
     e( 35 - 35) =     26.90025  eV     1   --> A              
     e( 36 - 36) =     27.87730  eV     1   --> A              
     e( 37 - 37) =     28.05392  eV     1   --> A              
     e( 38 - 38) =     28.36192  eV     1   --> A              
     e( 39 - 39) =     28.60457  eV     1   --> A              
     e( 40 - 40) =     29.03061  eV     1   --> A              

 **************************************************************************

 **************************************************************************

                    xk=(   0.48333,   0.31754,   0.00000  )

     Band symmetry, C_1 (1)     point group:

     e(  1 -  1) =    -44.21808  eV     1   --> A              
     e(  2 -  2) =    -44.20827  eV     1   --> A              
     e(  3 -  3) =    -20.60925  eV     1   --> A              
     e(  4 -  4) =    -20.59450  eV     1   --> A              
     e(  5 -  5) =    -20.58021  eV     1   --> A              
     e(  6 -  6) =    -20.46876  eV     1   --> A              
     e(  7 -  7) =    -20.46803  eV     1   --> A              
     e(  8 -  8) =    -20.45332  eV     1   --> A              
     e(  9 -  9) =     -0.82081  eV     1   --> A              
     e( 10 - 10) =     -0.49582  eV     1   --> A              
     e( 11 - 11) =      5.67432  eV     1   --> A              
     e( 12 - 12) =      7.01777  eV     1   --> A              
     e( 13 - 13) =      7.53483  eV     1   --> A              
     e( 14 - 14) =      8.28333  eV     1   --> A              
     e( 15 - 15) =      8.90402  eV     1   --> A              
     e( 16 - 16) =     10.02228  eV     1   --> A              
     e( 17 - 17) =     11.35685  eV     1   --> A              
     e( 18 - 18) =     12.24076  eV     1   --> A              
     e( 19 - 19) =     13.76027  eV     1   --> A              
     e( 20 - 20) =     14.88914  eV     1   --> A              
     e( 21 - 21) =     15.04371  eV     1   --> A              
     e( 22 - 22) =     15.11469  eV     1   --> A              
     e( 23 - 23) =     15.14183  eV     1   --> A              
     e( 24 - 24) =     15.76899  eV     1   --> A              
     e( 25 - 25) =     16.79785  eV     1   --> A              
     e( 26 - 26) =     16.82916  eV     1   --> A              
     e( 27 - 27) =     17.43990  eV     1   --> A              
     e( 28 - 28) =     18.66227  eV     1   --> A              
     e( 29 - 29) =     19.33333  eV     1   --> A              
     e( 30 - 30) =     19.56370  eV     1   --> A              
     e( 31 - 31) =     20.18413  eV     1   --> A              
     e( 32 - 32) =     20.67051  eV     1   --> A              
     e( 33 - 33) =     23.76567  eV     1   --> A              
     e( 34 - 34) =     26.57946  eV     1   --> A              
     e( 35 - 35) =     26.89612  eV     1   --> A              
     e( 36 - 36) =     27.93775  eV     1   --> A              
     e( 37 - 37) =     27.95592  eV     1   --> A              
     e( 38 - 38) =     28.32002  eV     1   --> A              
     e( 39 - 39) =     28.62832  eV     1   --> A              
     e( 40 - 40) =     29.04018  eV     1   --> A              

 **************************************************************************

 **************************************************************************

                    xk=(   0.48000,   0.32331,   0.00000  )

     Band symmetry, C_1 (1)     point group:

     e(  1 -  1) =    -44.21806  eV     1   --> A              
     e(  2 -  2) =    -44.20824  eV     1   --> A              
     e(  3 -  3) =    -20.60898  eV     1   --> A              
     e(  4 -  4) =    -20.59444  eV     1   --> A              
     e(  5 -  5) =    -20.57995  eV     1   --> A              
     e(  6 -  6) =    -20.46873  eV     1   --> A              
     e(  7 -  7) =    -20.46859  eV     1   --> A              
     e(  8 -  8) =    -20.45383  eV     1   --> A              
     e(  9 -  9) =     -0.81810  eV     1   --> A              
     e( 10 - 10) =     -0.49533  eV     1   --> A              
     e( 11 - 11) =      5.67990  eV     1   --> A              
     e( 12 - 12) =      7.01813  eV     1   --> A              
     e( 13 - 13) =      7.53863  eV     1   --> A              
     e( 14 - 14) =      8.28098  eV     1   --> A              
     e( 15 - 15) =      8.89725  eV     1   --> A              
     e( 16 - 16) =      9.96715  eV     1   --> A              
     e( 17 - 17) =     11.40404  eV     1   --> A              
     e( 18 - 18) =     12.24619  eV     1   --> A              
     e( 19 - 19) =     13.75792  eV     1   --> A              
     e( 20 - 20) =     14.87753  eV     1   --> A              
     e( 21 - 21) =     15.04270  eV     1   --> A              
     e( 22 - 22) =     15.11125  eV     1   --> A              
     e( 23 - 23) =     15.14131  eV     1   --> A              
     e( 24 - 24) =     15.77330  eV     1   --> A              
     e( 25 - 25) =     16.74669  eV     1   --> A              
     e( 26 - 26) =     16.82624  eV     1   --> A              
     e( 27 - 27) =     17.51612  eV     1   --> A              
     e( 28 - 28) =     18.68125  eV     1   --> A              
     e( 29 - 29) =     19.29630  eV     1   --> A              
     e( 30 - 30) =     19.58128  eV     1   --> A              
     e( 31 - 31) =     20.20266  eV     1   --> A              
     e( 32 - 32) =     20.68895  eV     1   --> A              
     e( 33 - 33) =     23.74446  eV     1   --> A              
     e( 34 - 34) =     26.48947  eV     1   --> A              
     e( 35 - 35) =     26.89033  eV     1   --> A              
     e( 36 - 36) =     27.82001  eV     1   --> A              
     e( 37 - 37) =     28.04035  eV     1   --> A              
     e( 38 - 38) =     28.27346  eV     1   --> A              
     e( 39 - 39) =     28.65722  eV     1   --> A              
     e( 40 - 40) =     29.04803  eV     1   --> A              

 **************************************************************************

 **************************************************************************

                    xk=(   0.47666,   0.32908,   0.00000  )

     Band symmetry, C_1 (1)     point group:

     e(  1 -  1) =    -44.21804  eV     1   --> A              
     e(  2 -  2) =    -44.20822  eV     1   --> A              
     e(  3 -  3) =    -20.60866  eV     1   --> A              
     e(  4 -  4) =    -20.59436  eV     1   --> A              
     e(  5 -  5) =    -20.57964  eV     1   --> A              
     e(  6 -  6) =    -20.46924  eV     1   --> A              
     e(  7 -  7) =    -20.46870  eV     1   --> A              
     e(  8 -  8) =    -20.45443  eV     1   --> A              
     e(  9 -  9) =     -0.81490  eV     1   --> A              
     e( 10 - 10) =     -0.49477  eV     1   --> A              
     e( 11 - 11) =      5.68649  eV     1   --> A              
     e( 12 - 12) =      7.01856  eV     1   --> A              
     e( 13 - 13) =      7.54309  eV     1   --> A              
     e( 14 - 14) =      8.27822  eV     1   --> A              
     e( 15 - 15) =      8.88932  eV     1   --> A              
     e( 16 - 16) =      9.90656  eV     1   --> A              
     e( 17 - 17) =     11.45535  eV     1   --> A              
     e( 18 - 18) =     12.25258  eV     1   --> A              
     e( 19 - 19) =     13.75505  eV     1   --> A              
     e( 20 - 20) =     14.86397  eV     1   --> A              
     e( 21 - 21) =     15.04172  eV     1   --> A              
     e( 22 - 22) =     15.10709  eV     1   --> A              
     e( 23 - 23) =     15.14069  eV     1   --> A              
     e( 24 - 24) =     15.77838  eV     1   --> A              
     e( 25 - 25) =     16.69796  eV     1   --> A              
     e( 26 - 26) =     16.82278  eV     1   --> A              
     e( 27 - 27) =     17.59423  eV     1   --> A              
     e( 28 - 28) =     18.70351  eV     1   --> A              
     e( 29 - 29) =     19.25428  eV     1   --> A              
     e( 30 - 30) =     19.60206  eV     1   --> A              
     e( 31 - 31) =     20.22453  eV     1   --> A              
     e( 32 - 32) =     20.70917  eV     1   --> A              
     e( 33 - 33) =     23.71972  eV     1   --> A              
     e( 34 - 34) =     26.39470  eV     1   --> A              
     e( 35 - 35) =     26.88242  eV     1   --> A              
     e( 36 - 36) =     27.70147  eV     1   --> A              
     e( 37 - 37) =     28.12854  eV     1   --> A              
     e( 38 - 38) =     28.22376  eV     1   --> A              
     e( 39 - 39) =     28.69120  eV     1   --> A              
     e( 40 - 40) =     29.05316  eV     1   --> A              

 **************************************************************************

 **************************************************************************

                    xk=(   0.47333,   0.33485,   0.00000  )

     Band symmetry, C_1 (1)     point group:

     e(  1 -  1) =    -44.21801  eV     1   --> A              
     e(  2 -  2) =    -44.20819  eV     1   --> A              
     e(  3 -  3) =    -20.60829  eV     1   --> A              
     e(  4 -  4) =    -20.59426  eV     1   --> A              
     e(  5 -  5) =    -20.57929  eV     1   --> A              
     e(  6 -  6) =    -20.47000  eV     1   --> A              
     e(  7 -  7) =    -20.46866  eV     1   --> A              
     e(  8 -  8) =    -20.45512  eV     1   --> A              
     e(  9 -  9) =     -0.81123  eV     1   --> A              
     e( 10 - 10) =     -0.49412  eV     1   --> A              
     e( 11 - 11) =      5.69408  eV     1   --> A              
     e( 12 - 12) =      7.01905  eV     1   --> A              
     e( 13 - 13) =      7.54821  eV     1   --> A              
     e( 14 - 14) =      8.27506  eV     1   --> A              
     e( 15 - 15) =      8.88025  eV     1   --> A              
     e( 16 - 16) =      9.84158  eV     1   --> A              
     e( 17 - 17) =     11.50976  eV     1   --> A              
     e( 18 - 18) =     12.25994  eV     1   --> A              
     e( 19 - 19) =     13.75162  eV     1   --> A              
     e( 20 - 20) =     14.84855  eV     1   --> A              
     e( 21 - 21) =     15.04088  eV     1   --> A              
     e( 22 - 22) =     15.10217  eV     1   --> A              
     e( 23 - 23) =     15.13997  eV     1   --> A              
     e( 24 - 24) =     15.78420  eV     1   --> A              
     e( 25 - 25) =     16.65163  eV     1   --> A              
     e( 26 - 26) =     16.81878  eV     1   --> A              
     e( 27 - 27) =     17.67413  eV     1   --> A              
     e( 28 - 28) =     18.72899  eV     1   --> A              
     e( 29 - 29) =     19.20786  eV     1   --> A              
     e( 30 - 30) =     19.62603  eV     1   --> A              
     e( 31 - 31) =     20.24976  eV     1   --> A              
     e( 32 - 32) =     20.73067  eV     1   --> A              
     e( 33 - 33) =     23.69158  eV     1   --> A              
     e( 34 - 34) =     26.29653  eV     1   --> A              
     e( 35 - 35) =     26.87187  eV     1   --> A              
     e( 36 - 36) =     27.58252  eV     1   --> A              
     e( 37 - 37) =     28.17231  eV     1   --> A              
     e( 38 - 38) =     28.21910  eV     1   --> A              
     e( 39 - 39) =     28.73015  eV     1   --> A              
     e( 40 - 40) =     29.05482  eV     1   --> A              

 **************************************************************************

 **************************************************************************

                    xk=(   0.46999,   0.34063,   0.00000  )

     Band symmetry, C_1 (1)     point group:

     e(  1 -  1) =    -44.21797  eV     1   --> A              
     e(  2 -  2) =    -44.20816  eV     1   --> A              
     e(  3 -  3) =    -20.60787  eV     1   --> A              
     e(  4 -  4) =    -20.59416  eV     1   --> A              
     e(  5 -  5) =    -20.57889  eV     1   --> A              
     e(  6 -  6) =    -20.47085  eV     1   --> A              
     e(  7 -  7) =    -20.46861  eV     1   --> A              
     e(  8 -  8) =    -20.45591  eV     1   --> A              
     e(  9 -  9) =     -0.80710  eV     1   --> A              
     e( 10 - 10) =     -0.49340  eV     1   --> A              
     e( 11 - 11) =      5.70268  eV     1   --> A              
     e( 12 - 12) =      7.01959  eV     1   --> A              
     e( 13 - 13) =      7.55398  eV     1   --> A              
     e( 14 - 14) =      8.27151  eV     1   --> A              
     e( 15 - 15) =      8.87010  eV     1   --> A              
     e( 16 - 16) =      9.77307  eV     1   --> A              
     e( 17 - 17) =     11.56647  eV     1   --> A              
     e( 18 - 18) =     12.26825  eV     1   --> A              
     e( 19 - 19) =     13.74758  eV     1   --> A              
     e( 20 - 20) =     14.83138  eV     1   --> A              
     e( 21 - 21) =     15.04029  eV     1   --> A              
     e( 22 - 22) =     15.09647  eV     1   --> A              
     e( 23 - 23) =     15.13914  eV     1   --> A              
     e( 24 - 24) =     15.79075  eV     1   --> A              
     e( 25 - 25) =     16.60765  eV     1   --> A              
     e( 26 - 26) =     16.81422  eV     1   --> A              
     e( 27 - 27) =     17.75572  eV     1   --> A              
     e( 28 - 28) =     18.75759  eV     1   --> A              
     e( 29 - 29) =     19.15760  eV     1   --> A              
     e( 30 - 30) =     19.65321  eV     1   --> A              
     e( 31 - 31) =     20.27831  eV     1   --> A              
     e( 32 - 32) =     20.75299  eV     1   --> A              
     e( 33 - 33) =     23.66021  eV     1   --> A              
     e( 34 - 34) =     26.19590  eV     1   --> A              
     e( 35 - 35) =     26.85806  eV     1   --> A              
     e( 36 - 36) =     27.46344  eV     1   --> A              
     e( 37 - 37) =     28.12036  eV     1   --> A              
     e( 38 - 38) =     28.31110  eV     1   --> A              
     e( 39 - 39) =     28.77399  eV     1   --> A              
     e( 40 - 40) =     29.05254  eV     1   --> A              

 **************************************************************************

 **************************************************************************

                    xk=(   0.46666,   0.34640,   0.00000  )

     Band symmetry, C_1 (1)     point group:

     e(  1 -  1) =    -44.21793  eV     1   --> A              
     e(  2 -  2) =    -44.20812  eV     1   --> A              
     e(  3 -  3) =    -20.60740  eV     1   --> A              
     e(  4 -  4) =    -20.59404  eV     1   --> A              
     e(  5 -  5) =    -20.57844  eV     1   --> A              
     e(  6 -  6) =    -20.47180  eV     1   --> A              
     e(  7 -  7) =    -20.46856  eV     1   --> A              
     e(  8 -  8) =    -20.45677  eV     1   --> A              
     e(  9 -  9) =     -0.80251  eV     1   --> A              
     e( 10 - 10) =     -0.49261  eV     1   --> A              
     e( 11 - 11) =      5.71227  eV     1   --> A              
     e( 12 - 12) =      7.02018  eV     1   --> A              
     e( 13 - 13) =      7.56039  eV     1   --> A              
     e( 14 - 14) =      8.26758  eV     1   --> A              
     e( 15 - 15) =      8.85889  eV     1   --> A              
     e( 16 - 16) =      9.70170  eV     1   --> A              
     e( 17 - 17) =     11.62485  eV     1   --> A              
     e( 18 - 18) =     12.27751  eV     1   --> A              
     e( 19 - 19) =     13.74289  eV     1   --> A              
     e( 20 - 20) =     14.81254  eV     1   --> A              
     e( 21 - 21) =     15.04007  eV     1   --> A              
     e( 22 - 22) =     15.08993  eV     1   --> A              
     e( 23 - 23) =     15.13821  eV     1   --> A              
     e( 24 - 24) =     15.79800  eV     1   --> A              
     e( 25 - 25) =     16.56601  eV     1   --> A              
     e( 26 - 26) =     16.80912  eV     1   --> A              
     e( 27 - 27) =     17.83888  eV     1   --> A              
     e( 28 - 28) =     18.78923  eV     1   --> A              
     e( 29 - 29) =     19.10402  eV     1   --> A              
     e( 30 - 30) =     19.68358  eV     1   --> A              
     e( 31 - 31) =     20.31018  eV     1   --> A              
     e( 32 - 32) =     20.77572  eV     1   --> A              
     e( 33 - 33) =     23.62577  eV     1   --> A              
     e( 34 - 34) =     26.09346  eV     1   --> A              
     e( 35 - 35) =     26.84035  eV     1   --> A              
     e( 36 - 36) =     27.34440  eV     1   --> A              
     e( 37 - 37) =     28.06907  eV     1   --> A              
     e( 38 - 38) =     28.40388  eV     1   --> A              
     e( 39 - 39) =     28.82260  eV     1   --> A              
     e( 40 - 40) =     29.04601  eV     1   --> A              

 **************************************************************************

 **************************************************************************

                    xk=(   0.46333,   0.35217,   0.00000  )

     Band symmetry, C_1 (1)     point group:

     e(  1 -  1) =    -44.21789  eV     1   --> A              
     e(  2 -  2) =    -44.20808  eV     1   --> A              
     e(  3 -  3) =    -20.60689  eV     1   --> A              
     e(  4 -  4) =    -20.59390  eV     1   --> A              
     e(  5 -  5) =    -20.57795  eV     1   --> A              
     e(  6 -  6) =    -20.47284  eV     1   --> A              
     e(  7 -  7) =    -20.46850  eV     1   --> A              
     e(  8 -  8) =    -20.45773  eV     1   --> A              
     e(  9 -  9) =     -0.79747  eV     1   --> A              
     e( 10 - 10) =     -0.49174  eV     1   --> A              
     e( 11 - 11) =      5.72286  eV     1   --> A              
     e( 12 - 12) =      7.02082  eV     1   --> A              
     e( 13 - 13) =      7.56742  eV     1   --> A              
     e( 14 - 14) =      8.26328  eV     1   --> A              
     e( 15 - 15) =      8.84667  eV     1   --> A              
     e( 16 - 16) =      9.62802  eV     1   --> A              
     e( 17 - 17) =     11.68444  eV     1   --> A              
     e( 18 - 18) =     12.28770  eV     1   --> A              
     e( 19 - 19) =     13.73750  eV     1   --> A              
     e( 20 - 20) =     14.79216  eV     1   --> A              
     e( 21 - 21) =     15.04035  eV     1   --> A              
     e( 22 - 22) =     15.08253  eV     1   --> A              
     e( 23 - 23) =     15.13717  eV     1   --> A              
     e( 24 - 24) =     15.80591  eV     1   --> A              
     e( 25 - 25) =     16.52662  eV     1   --> A              
     e( 26 - 26) =     16.80344  eV     1   --> A              
     e( 27 - 27) =     17.92350  eV     1   --> A              
     e( 28 - 28) =     18.82381  eV     1   --> A              
     e( 29 - 29) =     19.04757  eV     1   --> A              
     e( 30 - 30) =     19.71716  eV     1   --> A              
     e( 31 - 31) =     20.34534  eV     1   --> A              
     e( 32 - 32) =     20.79852  eV     1   --> A              
     e( 33 - 33) =     23.58843  eV     1   --> A              
     e( 34 - 34) =     25.98969  eV     1   --> A              
     e( 35 - 35) =     26.81805  eV     1   --> A              
     e( 36 - 36) =     27.22552  eV     1   --> A              
     e( 37 - 37) =     28.01951  eV     1   --> A              
     e( 38 - 38) =     28.49696  eV     1   --> A              
     e( 39 - 39) =     28.87584  eV     1   --> A              
     e( 40 - 40) =     29.03512  eV     1   --> A              

 **************************************************************************

 **************************************************************************

                    xk=(   0.45999,   0.35794,   0.00000  )

     Band symmetry, C_1 (1)     point group:

     e(  1 -  1) =    -44.21785  eV     1   --> A              
     e(  2 -  2) =    -44.20804  eV     1   --> A              
     e(  3 -  3) =    -20.60634  eV     1   --> A              
     e(  4 -  4) =    -20.59375  eV     1   --> A              
     e(  5 -  5) =    -20.57741  eV     1   --> A              
     e(  6 -  6) =    -20.47397  eV     1   --> A              
     e(  7 -  7) =    -20.46845  eV     1   --> A              
     e(  8 -  8) =    -20.45876  eV     1   --> A              
     e(  9 -  9) =     -0.79199  eV     1   --> A              
     e( 10 - 10) =     -0.49081  eV     1   --> A              
     e( 11 - 11) =      5.73445  eV     1   --> A              
     e( 12 - 12) =      7.02150  eV     1   --> A              
     e( 13 - 13) =      7.57505  eV     1   --> A              
     e( 14 - 14) =      8.25862  eV     1   --> A              
     e( 15 - 15) =      8.83351  eV     1   --> A              
     e( 16 - 16) =      9.55249  eV     1   --> A              
     e( 17 - 17) =     11.74485  eV     1   --> A              
     e( 18 - 18) =     12.29881  eV     1   --> A              
     e( 19 - 19) =     13.73137  eV     1   --> A              
     e( 20 - 20) =     14.77035  eV     1   --> A              
     e( 21 - 21) =     15.04123  eV     1   --> A              
     e( 22 - 22) =     15.07424  eV     1   --> A              
     e( 23 - 23) =     15.13601  eV     1   --> A              
     e( 24 - 24) =     15.81446  eV     1   --> A              
     e( 25 - 25) =     16.48945  eV     1   --> A              
     e( 26 - 26) =     16.79720  eV     1   --> A              
     e( 27 - 27) =     18.00944  eV     1   --> A              
     e( 28 - 28) =     18.86122  eV     1   --> A              
     e( 29 - 29) =     18.98869  eV     1   --> A              
     e( 30 - 30) =     19.75396  eV     1   --> A              
     e( 31 - 31) =     20.38378  eV     1   --> A              
     e( 32 - 32) =     20.82109  eV     1   --> A              
     e( 33 - 33) =     23.54838  eV     1   --> A              
     e( 34 - 34) =     25.88494  eV     1   --> A              
     e( 35 - 35) =     26.79052  eV     1   --> A              
     e( 36 - 36) =     27.10688  eV     1   --> A              
     e( 37 - 37) =     27.97263  eV     1   --> A              
     e( 38 - 38) =     28.58999  eV     1   --> A              
     e( 39 - 39) =     28.93358  eV     1   --> A              
     e( 40 - 40) =     29.01990  eV     1   --> A              

 **************************************************************************

 **************************************************************************

                    xk=(   0.45666,   0.36372,   0.00000  )

     Band symmetry, C_1 (1)     point group:

     e(  1 -  1) =    -44.21780  eV     1   --> A              
     e(  2 -  2) =    -44.20799  eV     1   --> A              
     e(  3 -  3) =    -20.60575  eV     1   --> A              
     e(  4 -  4) =    -20.59359  eV     1   --> A              
     e(  5 -  5) =    -20.57683  eV     1   --> A              
     e(  6 -  6) =    -20.47519  eV     1   --> A              
     e(  7 -  7) =    -20.46838  eV     1   --> A              
     e(  8 -  8) =    -20.45988  eV     1   --> A              
     e(  9 -  9) =     -0.78608  eV     1   --> A              
     e( 10 - 10) =     -0.48982  eV     1   --> A              
     e( 11 - 11) =      5.74702  eV     1   --> A              
     e( 12 - 12) =      7.02222  eV     1   --> A              
     e( 13 - 13) =      7.58328  eV     1   --> A              
     e( 14 - 14) =      8.25362  eV     1   --> A              
     e( 15 - 15) =      8.81944  eV     1   --> A              
     e( 16 - 16) =      9.47545  eV     1   --> A              
     e( 17 - 17) =     11.80581  eV     1   --> A              
     e( 18 - 18) =     12.31083  eV     1   --> A              
     e( 19 - 19) =     13.72445  eV     1   --> A              
     e( 20 - 20) =     14.74724  eV     1   --> A              
     e( 21 - 21) =     15.04286  eV     1   --> A              
     e( 22 - 22) =     15.06501  eV     1   --> A              
     e( 23 - 23) =     15.13475  eV     1   --> A              
     e( 24 - 24) =     15.82359  eV     1   --> A              
     e( 25 - 25) =     16.45442  eV     1   --> A              
     e( 26 - 26) =     16.79038  eV     1   --> A              
     e( 27 - 27) =     18.09658  eV     1   --> A              
     e( 28 - 28) =     18.90136  eV     1   --> A              
     e( 29 - 29) =     18.92774  eV     1   --> A              
     e( 30 - 30) =     19.79398  eV     1   --> A              
     e( 31 - 31) =     20.42546  eV     1   --> A              
     e( 32 - 32) =     20.84320  eV     1   --> A              
     e( 33 - 33) =     23.50578  eV     1   --> A              
     e( 34 - 34) =     25.77949  eV     1   --> A              
     e( 35 - 35) =     26.75715  eV     1   --> A              
     e( 36 - 36) =     26.98858  eV     1   --> A              
     e( 37 - 37) =     27.92924  eV     1   --> A              
     e( 38 - 38) =     28.68269  eV     1   --> A              
     e( 39 - 39) =     28.99566  eV     1   --> A              
     e( 40 - 40) =     29.00044  eV     1   --> A              

 **************************************************************************

 **************************************************************************

                    xk=(   0.45332,   0.36949,   0.00000  )

     Band symmetry, C_1 (1)     point group:

     e(  1 -  1) =    -44.21775  eV     1   --> A              
     e(  2 -  2) =    -44.20794  eV     1   --> A              
     e(  3 -  3) =    -20.60511  eV     1   --> A              
     e(  4 -  4) =    -20.59341  eV     1   --> A              
     e(  5 -  5) =    -20.57620  eV     1   --> A              
     e(  6 -  6) =    -20.47650  eV     1   --> A              
     e(  7 -  7) =    -20.46831  eV     1   --> A              
     e(  8 -  8) =    -20.46108  eV     1   --> A              
     e(  9 -  9) =     -0.77977  eV     1   --> A              
     e( 10 - 10) =     -0.48878  eV     1   --> A              
     e( 11 - 11) =      5.76057  eV     1   --> A              
     e( 12 - 12) =      7.02297  eV     1   --> A              
     e( 13 - 13) =      7.59207  eV     1   --> A              
     e( 14 - 14) =      8.24829  eV     1   --> A              
     e( 15 - 15) =      8.80453  eV     1   --> A              
     e( 16 - 16) =      9.39720  eV     1   --> A              
     e( 17 - 17) =     11.86710  eV     1   --> A              
     e( 18 - 18) =     12.32373  eV     1   --> A              
     e( 19 - 19) =     13.71671  eV     1   --> A              
     e( 20 - 20) =     14.72295  eV     1   --> A              
     e( 21 - 21) =     15.04534  eV     1   --> A              
     e( 22 - 22) =     15.05484  eV     1   --> A              
     e( 23 - 23) =     15.13336  eV     1   --> A              
     e( 24 - 24) =     15.83326  eV     1   --> A              
     e( 25 - 25) =     16.42145  eV     1   --> A              
     e( 26 - 26) =     16.78296  eV     1   --> A              
     e( 27 - 27) =     18.18478  eV     1   --> A              
     e( 28 - 28) =     18.86508  eV     1   --> A              
     e( 29 - 29) =     18.94412  eV     1   --> A              
     e( 30 - 30) =     19.83725  eV     1   --> A              
     e( 31 - 31) =     20.47034  eV     1   --> A              
     e( 32 - 32) =     20.86464  eV     1   --> A              
     e( 33 - 33) =     23.46083  eV     1   --> A              
     e( 34 - 34) =     25.67354  eV     1   --> A              
     e( 35 - 35) =     26.71751  eV     1   --> A              
     e( 36 - 36) =     26.87067  eV     1   --> A              
     e( 37 - 37) =     27.89000  eV     1   --> A              
     e( 38 - 38) =     28.77486  eV     1   --> A              
     e( 39 - 39) =     28.97697  eV     1   --> A              
     e( 40 - 40) =     29.06191  eV     1   --> A              

 **************************************************************************

 **************************************************************************

                    xk=(   0.44999,   0.37526,   0.00000  )

     Band symmetry, C_1 (1)     point group:

     e(  1 -  1) =    -44.21770  eV     1   --> A              
     e(  2 -  2) =    -44.20789  eV     1   --> A              
     e(  3 -  3) =    -20.60444  eV     1   --> A              
     e(  4 -  4) =    -20.59321  eV     1   --> A              
     e(  5 -  5) =    -20.57553  eV     1   --> A              
     e(  6 -  6) =    -20.47789  eV     1   --> A              
     e(  7 -  7) =    -20.46824  eV     1   --> A              
     e(  8 -  8) =    -20.46235  eV     1   --> A              
     e(  9 -  9) =     -0.77305  eV     1   --> A              
     e( 10 - 10) =     -0.48769  eV     1   --> A              
     e( 11 - 11) =      5.77510  eV     1   --> A              
     e( 12 - 12) =      7.02375  eV     1   --> A              
     e( 13 - 13) =      7.60141  eV     1   --> A              
     e( 14 - 14) =      8.24264  eV     1   --> A              
     e( 15 - 15) =      8.78883  eV     1   --> A              
     e( 16 - 16) =      9.31801  eV     1   --> A              
     e( 17 - 17) =     11.92855  eV     1   --> A              
     e( 18 - 18) =     12.33751  eV     1   --> A              
     e( 19 - 19) =     13.70810  eV     1   --> A              
     e( 20 - 20) =     14.69760  eV     1   --> A              
     e( 21 - 21) =     15.04369  eV     1   --> A              
     e( 22 - 22) =     15.04879  eV     1   --> A              
     e( 23 - 23) =     15.13185  eV     1   --> A              
     e( 24 - 24) =     15.84340  eV     1   --> A              
     e( 25 - 25) =     16.39047  eV     1   --> A              
     e( 26 - 26) =     16.77493  eV     1   --> A              
     e( 27 - 27) =     18.27390  eV     1   --> A              
     e( 28 - 28) =     18.80103  eV     1   --> A              
     e( 29 - 29) =     18.98939  eV     1   --> A              
     e( 30 - 30) =     19.88379  eV     1   --> A              
     e( 31 - 31) =     20.51839  eV     1   --> A              
     e( 32 - 32) =     20.88526  eV     1   --> A              
     e( 33 - 33) =     23.41370  eV     1   --> A              
     e( 34 - 34) =     25.56728  eV     1   --> A              
     e( 35 - 35) =     26.67132  eV     1   --> A              
     e( 36 - 36) =     26.75320  eV     1   --> A              
     e( 37 - 37) =     27.85531  eV     1   --> A              
     e( 38 - 38) =     28.86631  eV     1   --> A              
     e( 39 - 39) =     28.94973  eV     1   --> A              
     e( 40 - 40) =     29.13216  eV     1   --> A              

 **************************************************************************

 **************************************************************************

                    xk=(   0.44666,   0.38103,   0.00000  )

     Band symmetry, C_1 (1)     point group:

     e(  1 -  1) =    -44.21764  eV     1   --> A              
     e(  2 -  2) =    -44.20784  eV     1   --> A              
     e(  3 -  3) =    -20.60374  eV     1   --> A              
     e(  4 -  4) =    -20.59298  eV     1   --> A              
     e(  5 -  5) =    -20.57481  eV     1   --> A              
     e(  6 -  6) =    -20.47936  eV     1   --> A              
     e(  7 -  7) =    -20.46816  eV     1   --> A              
     e(  8 -  8) =    -20.46370  eV     1   --> A              
     e(  9 -  9) =     -0.76596  eV     1   --> A              
     e( 10 - 10) =     -0.48655  eV     1   --> A              
     e( 11 - 11) =      5.79059  eV     1   --> A              
     e( 12 - 12) =      7.02454  eV     1   --> A              
     e( 13 - 13) =      7.61127  eV     1   --> A              
     e( 14 - 14) =      8.23670  eV     1   --> A              
     e( 15 - 15) =      8.77242  eV     1   --> A              
     e( 16 - 16) =      9.23808  eV     1   --> A              
     e( 17 - 17) =     11.99004  eV     1   --> A              
     e( 18 - 18) =     12.35214  eV     1   --> A              
     e( 19 - 19) =     13.69861  eV     1   --> A              
     e( 20 - 20) =     14.67133  eV     1   --> A              
     e( 21 - 21) =     15.03155  eV     1   --> A              
     e( 22 - 22) =     15.05330  eV     1   --> A              
     e( 23 - 23) =     15.13022  eV     1   --> A              
     e( 24 - 24) =     15.85396  eV     1   --> A              
     e( 25 - 25) =     16.36141  eV     1   --> A              
     e( 26 - 26) =     16.76628  eV     1   --> A              
     e( 27 - 27) =     18.36378  eV     1   --> A              
     e( 28 - 28) =     18.73586  eV     1   --> A              
     e( 29 - 29) =     19.03704  eV     1   --> A              
     e( 30 - 30) =     19.93360  eV     1   --> A              
     e( 31 - 31) =     20.56955  eV     1   --> A              
     e( 32 - 32) =     20.90493  eV     1   --> A              
     e( 33 - 33) =     23.36457  eV     1   --> A              
     e( 34 - 34) =     25.46085  eV     1   --> A              
     e( 35 - 35) =     26.61853  eV     1   --> A              
     e( 36 - 36) =     26.63623  eV     1   --> A              
     e( 37 - 37) =     27.82536  eV     1   --> A              
     e( 38 - 38) =     28.91903  eV     1   --> A              
     e( 39 - 39) =     28.95690  eV     1   --> A              
     e( 40 - 40) =     29.20621  eV     1   --> A              

 **************************************************************************

 **************************************************************************

                    xk=(   0.44332,   0.38681,   0.00000  )

     Band symmetry, C_1 (1)     point group:

     e(  1 -  1) =    -44.21758  eV     1   --> A              
     e(  2 -  2) =    -44.20778  eV     1   --> A              
     e(  3 -  3) =    -20.60300  eV     1   --> A              
     e(  4 -  4) =    -20.59274  eV     1   --> A              
     e(  5 -  5) =    -20.57405  eV     1   --> A              
     e(  6 -  6) =    -20.48091  eV     1   --> A              
     e(  7 -  7) =    -20.46809  eV     1   --> A              
     e(  8 -  8) =    -20.46512  eV     1   --> A              
     e(  9 -  9) =     -0.75849  eV     1   --> A              
     e( 10 - 10) =     -0.48537  eV     1   --> A              
     e( 11 - 11) =      5.80705  eV     1   --> A              
     e( 12 - 12) =      7.02535  eV     1   --> A              
     e( 13 - 13) =      7.62164  eV     1   --> A              
     e( 14 - 14) =      8.23049  eV     1   --> A              
     e( 15 - 15) =      8.75535  eV     1   --> A              
     e( 16 - 16) =      9.15760  eV     1   --> A              
     e( 17 - 17) =     12.05148  eV     1   --> A              
     e( 18 - 18) =     12.36761  eV     1   --> A              
     e( 19 - 19) =     13.68821  eV     1   --> A              
     e( 20 - 20) =     14.64425  eV     1   --> A              
     e( 21 - 21) =     15.01841  eV     1   --> A              
     e( 22 - 22) =     15.05899  eV     1   --> A              
     e( 23 - 23) =     15.12846  eV     1   --> A              
     e( 24 - 24) =     15.86487  eV     1   --> A              
     e( 25 - 25) =     16.33417  eV     1   --> A              
     e( 26 - 26) =     16.75699  eV     1   --> A              
     e( 27 - 27) =     18.45428  eV     1   --> A              
     e( 28 - 28) =     18.66986  eV     1   --> A              
     e( 29 - 29) =     19.08698  eV     1   --> A              
     e( 30 - 30) =     19.98672  eV     1   --> A              
     e( 31 - 31) =     20.62377  eV     1   --> A              
     e( 32 - 32) =     20.92356  eV     1   --> A              
     e( 33 - 33) =     23.31361  eV     1   --> A              
     e( 34 - 34) =     25.35438  eV     1   --> A              
     e( 35 - 35) =     26.51980  eV     1   --> A              
     e( 36 - 36) =     26.55930  eV     1   --> A              
     e( 37 - 37) =     27.80010  eV     1   --> A              
     e( 38 - 38) =     28.88522  eV     1   --> A              
     e( 39 - 39) =     29.04652  eV     1   --> A              
     e( 40 - 40) =     29.28384  eV     1   --> A              

 **************************************************************************

 **************************************************************************

                    xk=(   0.43999,   0.39258,   0.00000  )

     Band symmetry, C_1 (1)     point group:

     e(  1 -  1) =    -44.21752  eV     1   --> A              
     e(  2 -  2) =    -44.20772  eV     1   --> A              
     e(  3 -  3) =    -20.60224  eV     1   --> A              
     e(  4 -  4) =    -20.59247  eV     1   --> A              
     e(  5 -  5) =    -20.57325  eV     1   --> A              
     e(  6 -  6) =    -20.48254  eV     1   --> A              
     e(  7 -  7) =    -20.46800  eV     1   --> A              
     e(  8 -  8) =    -20.46661  eV     1   --> A              
     e(  9 -  9) =     -0.75068  eV     1   --> A              
     e( 10 - 10) =     -0.48416  eV     1   --> A              
     e( 11 - 11) =      5.82447  eV     1   --> A              
     e( 12 - 12) =      7.02617  eV     1   --> A              
     e( 13 - 13) =      7.63249  eV     1   --> A              
     e( 14 - 14) =      8.22401  eV     1   --> A              
     e( 15 - 15) =      8.73771  eV     1   --> A              
     e( 16 - 16) =      9.07674  eV     1   --> A              
     e( 17 - 17) =     12.11279  eV     1   --> A              
     e( 18 - 18) =     12.38388  eV     1   --> A              
     e( 19 - 19) =     13.67689  eV     1   --> A              
     e( 20 - 20) =     14.61650  eV     1   --> A              
     e( 21 - 21) =     15.00426  eV     1   --> A              
     e( 22 - 22) =     15.06592  eV     1   --> A              
     e( 23 - 23) =     15.12657  eV     1   --> A              
     e( 24 - 24) =     15.87606  eV     1   --> A              
     e( 25 - 25) =     16.30869  eV     1   --> A              
     e( 26 - 26) =     16.74704  eV     1   --> A              
     e( 27 - 27) =     18.54525  eV     1   --> A              
     e( 28 - 28) =     18.60328  eV     1   --> A              
     e( 29 - 29) =     19.13909  eV     1   --> A              
     e( 30 - 30) =     20.04318  eV     1   --> A              
     e( 31 - 31) =     20.68097  eV     1   --> A              
     e( 32 - 32) =     20.94106  eV     1   --> A              
     e( 33 - 33) =     23.26098  eV     1   --> A              
     e( 34 - 34) =     25.24798  eV     1   --> A              
     e( 35 - 35) =     26.40395  eV     1   --> A              
     e( 36 - 36) =     26.49396  eV     1   --> A              
     e( 37 - 37) =     27.77931  eV     1   --> A              
     e( 38 - 38) =     28.84863  eV     1   --> A              
     e( 39 - 39) =     29.13507  eV     1   --> A              
     e( 40 - 40) =     29.36483  eV     1   --> A              

 **************************************************************************

 **************************************************************************

                    xk=(   0.43665,   0.39835,   0.00000  )

     Band symmetry, C_1 (1)     point group:

     e(  1 -  1) =    -44.21745  eV     1   --> A              
     e(  2 -  2) =    -44.20766  eV     1   --> A              
     e(  3 -  3) =    -20.60146  eV     1   --> A              
     e(  4 -  4) =    -20.59216  eV     1   --> A              
     e(  5 -  5) =    -20.57241  eV     1   --> A              
     e(  6 -  6) =    -20.48424  eV     1   --> A              
     e(  7 -  7) =    -20.46817  eV     1   --> A              
     e(  8 -  8) =    -20.46792  eV     1   --> A              
     e(  9 -  9) =     -0.74253  eV     1   --> A              
     e( 10 - 10) =     -0.48293  eV     1   --> A              
     e( 11 - 11) =      5.84283  eV     1   --> A              
     e( 12 - 12) =      7.02699  eV     1   --> A              
     e( 13 - 13) =      7.64378  eV     1   --> A              
     e( 14 - 14) =      8.21729  eV     1   --> A              
     e( 15 - 15) =      8.71955  eV     1   --> A              
     e( 16 - 16) =      8.99565  eV     1   --> A              
     e( 17 - 17) =     12.17392  eV     1   --> A              
     e( 18 - 18) =     12.40094  eV     1   --> A              
     e( 19 - 19) =     13.66466  eV     1   --> A              
     e( 20 - 20) =     14.58820  eV     1   --> A              
     e( 21 - 21) =     14.98909  eV     1   --> A              
     e( 22 - 22) =     15.07416  eV     1   --> A              
     e( 23 - 23) =     15.12455  eV     1   --> A              
     e( 24 - 24) =     15.88747  eV     1   --> A              
     e( 25 - 25) =     16.28487  eV     1   --> A              
     e( 26 - 26) =     16.73641  eV     1   --> A              
     e( 27 - 27) =     18.53635  eV     1   --> A              
     e( 28 - 28) =     18.63652  eV     1   --> A              
     e( 29 - 29) =     19.19324  eV     1   --> A              
     e( 30 - 30) =     20.10298  eV     1   --> A              
     e( 31 - 31) =     20.74108  eV     1   --> A              
     e( 32 - 32) =     20.95739  eV     1   --> A              
     e( 33 - 33) =     23.20686  eV     1   --> A              
     e( 34 - 34) =     25.14175  eV     1   --> A              
     e( 35 - 35) =     26.28872  eV     1   --> A              
     e( 36 - 36) =     26.42298  eV     1   --> A              
     e( 37 - 37) =     27.76259  eV     1   --> A              
     e( 38 - 38) =     28.80963  eV     1   --> A              
     e( 39 - 39) =     29.22245  eV     1   --> A              
     e( 40 - 40) =     29.44893  eV     1   --> A              

 **************************************************************************

 **************************************************************************

                    xk=(   0.43332,   0.40412,   0.00000  )

     Band symmetry, C_1 (1)     point group:

     e(  1 -  1) =    -44.21739  eV     1   --> A              
     e(  2 -  2) =    -44.20760  eV     1   --> A              
     e(  3 -  3) =    -20.60067  eV     1   --> A              
     e(  4 -  4) =    -20.59182  eV     1   --> A              
     e(  5 -  5) =    -20.57152  eV     1   --> A              
     e(  6 -  6) =    -20.48601  eV     1   --> A              
     e(  7 -  7) =    -20.46979  eV     1   --> A              
     e(  8 -  8) =    -20.46783  eV     1   --> A              
     e(  9 -  9) =     -0.73407  eV     1   --> A              
     e( 10 - 10) =     -0.48168  eV     1   --> A              
     e( 11 - 11) =      5.86213  eV     1   --> A              
     e( 12 - 12) =      7.02780  eV     1   --> A              
     e( 13 - 13) =      7.65550  eV     1   --> A              
     e( 14 - 14) =      8.21035  eV     1   --> A              
     e( 15 - 15) =      8.70095  eV     1   --> A              
     e( 16 - 16) =      8.91446  eV     1   --> A              
     e( 17 - 17) =     12.23484  eV     1   --> A              
     e( 18 - 18) =     12.41875  eV     1   --> A              
     e( 19 - 19) =     13.65152  eV     1   --> A              
     e( 20 - 20) =     14.55945  eV     1   --> A              
     e( 21 - 21) =     14.97292  eV     1   --> A              
     e( 22 - 22) =     15.08378  eV     1   --> A              
     e( 23 - 23) =     15.12239  eV     1   --> A              
     e( 24 - 24) =     15.89902  eV     1   --> A              
     e( 25 - 25) =     16.26264  eV     1   --> A              
     e( 26 - 26) =     16.72507  eV     1   --> A              
     e( 27 - 27) =     18.46930  eV     1   --> A              
     e( 28 - 28) =     18.72793  eV     1   --> A              
     e( 29 - 29) =     19.24933  eV     1   --> A              
     e( 30 - 30) =     20.16615  eV     1   --> A              
     e( 31 - 31) =     20.80399  eV     1   --> A              
     e( 32 - 32) =     20.97252  eV     1   --> A              
     e( 33 - 33) =     23.15139  eV     1   --> A              
     e( 34 - 34) =     25.03579  eV     1   --> A              
     e( 35 - 35) =     26.17415  eV     1   --> A              
     e( 36 - 36) =     26.34690  eV     1   --> A              
     e( 37 - 37) =     27.74949  eV     1   --> A              
     e( 38 - 38) =     28.76858  eV     1   --> A              
     e( 39 - 39) =     29.30859  eV     1   --> A              
     e( 40 - 40) =     29.53588  eV     1   --> A              

 **************************************************************************

 **************************************************************************

                    xk=(   0.42999,   0.40989,   0.00000  )

     Band symmetry, C_1 (1)     point group:

     e(  1 -  1) =    -44.21732  eV     1   --> A              
     e(  2 -  2) =    -44.20753  eV     1   --> A              
     e(  3 -  3) =    -20.59988  eV     1   --> A              
     e(  4 -  4) =    -20.59143  eV     1   --> A              
     e(  5 -  5) =    -20.57060  eV     1   --> A              
     e(  6 -  6) =    -20.48784  eV     1   --> A              
     e(  7 -  7) =    -20.47147  eV     1   --> A              
     e(  8 -  8) =    -20.46774  eV     1   --> A              
     e(  9 -  9) =     -0.72532  eV     1   --> A              
     e( 10 - 10) =     -0.48042  eV     1   --> A              
     e( 11 - 11) =      5.88236  eV     1   --> A              
     e( 12 - 12) =      7.02859  eV     1   --> A              
     e( 13 - 13) =      7.66761  eV     1   --> A              
     e( 14 - 14) =      8.20320  eV     1   --> A              
     e( 15 - 15) =      8.68199  eV     1   --> A              
     e( 16 - 16) =      8.83330  eV     1   --> A              
     e( 17 - 17) =     12.29552  eV     1   --> A              
     e( 18 - 18) =     12.43730  eV     1   --> A              
     e( 19 - 19) =     13.63750  eV     1   --> A              
     e( 20 - 20) =     14.53036  eV     1   --> A              
     e( 21 - 21) =     14.95574  eV     1   --> A              
     e( 22 - 22) =     15.09482  eV     1   --> A              
     e( 23 - 23) =     15.12010  eV     1   --> A              
     e( 24 - 24) =     15.91065  eV     1   --> A              
     e( 25 - 25) =     16.24194  eV     1   --> A              
     e( 26 - 26) =     16.71299  eV     1   --> A              
     e( 27 - 27) =     18.40236  eV     1   --> A              
     e( 28 - 28) =     18.81935  eV     1   --> A              
     e( 29 - 29) =     19.30725  eV     1   --> A              
     e( 30 - 30) =     20.23272  eV     1   --> A              
     e( 31 - 31) =     20.86962  eV     1   --> A              
     e( 32 - 32) =     20.98642  eV     1   --> A              
     e( 33 - 33) =     23.09475  eV     1   --> A              
     e( 34 - 34) =     24.93018  eV     1   --> A              
     e( 35 - 35) =     26.06027  eV     1   --> A              
     e( 36 - 36) =     26.26629  eV     1   --> A              
     e( 37 - 37) =     27.73952  eV     1   --> A              
     e( 38 - 38) =     28.72583  eV     1   --> A              
     e( 39 - 39) =     29.39343  eV     1   --> A              
     e( 40 - 40) =     29.62538  eV     1   --> A              

 **************************************************************************

 **************************************************************************

                    xk=(   0.42665,   0.41567,   0.00000  )

     Band symmetry, C_1 (1)     point group:

     e(  1 -  1) =    -44.21725  eV     1   --> A              
     e(  2 -  2) =    -44.20746  eV     1   --> A              
     e(  3 -  3) =    -20.59909  eV     1   --> A              
     e(  4 -  4) =    -20.59098  eV     1   --> A              
     e(  5 -  5) =    -20.56963  eV     1   --> A              
     e(  6 -  6) =    -20.48974  eV     1   --> A              
     e(  7 -  7) =    -20.47320  eV     1   --> A              
     e(  8 -  8) =    -20.46765  eV     1   --> A              
     e(  9 -  9) =     -0.71630  eV     1   --> A              
     e( 10 - 10) =     -0.47916  eV     1   --> A              
     e( 11 - 11) =      5.90351  eV     1   --> A              
     e( 12 - 12) =      7.02936  eV     1   --> A              
     e( 13 - 13) =      7.68008  eV     1   --> A              
     e( 14 - 14) =      8.19587  eV     1   --> A              
     e( 15 - 15) =      8.66274  eV     1   --> A              
     e( 16 - 16) =      8.75227  eV     1   --> A              
     e( 17 - 17) =     12.35595  eV     1   --> A              
     e( 18 - 18) =     12.45654  eV     1   --> A              
     e( 19 - 19) =     13.62261  eV     1   --> A              
     e( 20 - 20) =     14.50105  eV     1   --> A              
     e( 21 - 21) =     14.93756  eV     1   --> A              
     e( 22 - 22) =     15.10730  eV     1   --> A              
     e( 23 - 23) =     15.11767  eV     1   --> A              
     e( 24 - 24) =     15.92229  eV     1   --> A              
     e( 25 - 25) =     16.22267  eV     1   --> A              
     e( 26 - 26) =     16.70015  eV     1   --> A              
     e( 27 - 27) =     18.33573  eV     1   --> A              
     e( 28 - 28) =     18.91060  eV     1   --> A              
     e( 29 - 29) =     19.36686  eV     1   --> A              
     e( 30 - 30) =     20.30267  eV     1   --> A              
     e( 31 - 31) =     20.93783  eV     1   --> A              
     e( 32 - 32) =     20.99907  eV     1   --> A              
     e( 33 - 33) =     23.03709  eV     1   --> A              
     e( 34 - 34) =     24.82500  eV     1   --> A              
     e( 35 - 35) =     25.94713  eV     1   --> A              
     e( 36 - 36) =     26.18173  eV     1   --> A              
     e( 37 - 37) =     27.73218  eV     1   --> A              
     e( 38 - 38) =     28.68174  eV     1   --> A              
     e( 39 - 39) =     29.47689  eV     1   --> A              
     e( 40 - 40) =     29.71712  eV     1   --> A              

 **************************************************************************

 **************************************************************************

                    xk=(   0.42332,   0.42144,   0.00000  )

     Band symmetry, C_1 (1)     point group:

     e(  1 -  1) =    -44.21718  eV     1   --> A              
     e(  2 -  2) =    -44.20740  eV     1   --> A              
     e(  3 -  3) =    -20.59832  eV     1   --> A              
     e(  4 -  4) =    -20.59047  eV     1   --> A              
     e(  5 -  5) =    -20.56863  eV     1   --> A              
     e(  6 -  6) =    -20.49169  eV     1   --> A              
     e(  7 -  7) =    -20.47499  eV     1   --> A              
     e(  8 -  8) =    -20.46755  eV     1   --> A              
     e(  9 -  9) =     -0.70704  eV     1   --> A              
     e( 10 - 10) =     -0.47791  eV     1   --> A              
     e( 11 - 11) =      5.92558  eV     1   --> A              
     e( 12 - 12) =      7.03009  eV     1   --> A              
     e( 13 - 13) =      7.69288  eV     1   --> A              
     e( 14 - 14) =      8.18838  eV     1   --> A              
     e( 15 - 15) =      8.64328  eV     1   --> A              
     e( 16 - 16) =      8.67150  eV     1   --> A              
     e( 17 - 17) =     12.41611  eV     1   --> A              
     e( 18 - 18) =     12.47644  eV     1   --> A              
     e( 19 - 19) =     13.60689  eV     1   --> A              
     e( 20 - 20) =     14.47160  eV     1   --> A              
     e( 21 - 21) =     14.91839  eV     1   --> A              
     e( 22 - 22) =     15.11510  eV     1   --> A              
     e( 23 - 23) =     15.12125  eV     1   --> A              
     e( 24 - 24) =     15.93387  eV     1   --> A              
     e( 25 - 25) =     16.20479  eV     1   --> A              
     e( 26 - 26) =     16.68650  eV     1   --> A              
     e( 27 - 27) =     18.26962  eV     1   --> A              
     e( 28 - 28) =     19.00157  eV     1   --> A              
     e( 29 - 29) =     19.42807  eV     1   --> A              
     e( 30 - 30) =     20.37602  eV     1   --> A              
     e( 31 - 31) =     21.00848  eV     1   --> A              
     e( 32 - 32) =     21.01050  eV     1   --> A              
     e( 33 - 33) =     22.97856  eV     1   --> A              
     e( 34 - 34) =     24.72035  eV     1   --> A              
     e( 35 - 35) =     25.83475  eV     1   --> A              
     e( 36 - 36) =     26.09374  eV     1   --> A              
     e( 37 - 37) =     27.72702  eV     1   --> A              
     e( 38 - 38) =     28.63664  eV     1   --> A              
     e( 39 - 39) =     29.55894  eV     1   --> A              
     e( 40 - 40) =     29.81075  eV     1   --> A              

 **************************************************************************

 **************************************************************************

                    xk=(   0.41998,   0.42721,   0.00000  )

     Band symmetry, C_1 (1)     point group:

     e(  1 -  1) =    -44.21711  eV     1   --> A              
     e(  2 -  2) =    -44.20733  eV     1   --> A              
     e(  3 -  3) =    -20.59759  eV     1   --> A              
     e(  4 -  4) =    -20.58988  eV     1   --> A              
     e(  5 -  5) =    -20.56758  eV     1   --> A              
     e(  6 -  6) =    -20.49370  eV     1   --> A              
     e(  7 -  7) =    -20.47683  eV     1   --> A              
     e(  8 -  8) =    -20.46745  eV     1   --> A              
     e(  9 -  9) =     -0.69755  eV     1   --> A              
     e( 10 - 10) =     -0.47667  eV     1   --> A              
     e( 11 - 11) =      5.94854  eV     1   --> A              
     e( 12 - 12) =      7.03078  eV     1   --> A              
     e( 13 - 13) =      7.70598  eV     1   --> A              
     e( 14 - 14) =      8.18075  eV     1   --> A              
     e( 15 - 15) =      8.59109  eV     1   --> A              
     e( 16 - 16) =      8.62368  eV     1   --> A              
     e( 17 - 17) =     12.47601  eV     1   --> A              
     e( 18 - 18) =     12.49698  eV     1   --> A              
     e( 19 - 19) =     13.59040  eV     1   --> A              
     e( 20 - 20) =     14.44211  eV     1   --> A              
     e( 21 - 21) =     14.89825  eV     1   --> A              
     e( 22 - 22) =     15.11240  eV     1   --> A              
     e( 23 - 23) =     15.13667  eV     1   --> A              
     e( 24 - 24) =     15.94532  eV     1   --> A              
     e( 25 - 25) =     16.18821  eV     1   --> A              
     e( 26 - 26) =     16.67201  eV     1   --> A              
     e( 27 - 27) =     18.20424  eV     1   --> A              
     e( 28 - 28) =     19.09211  eV     1   --> A              
     e( 29 - 29) =     19.49075  eV     1   --> A              
     e( 30 - 30) =     20.45274  eV     1   --> A              
     e( 31 - 31) =     21.02070  eV     1   --> A              
     e( 32 - 32) =     21.08141  eV     1   --> A              
     e( 33 - 33) =     22.91933  eV     1   --> A              
     e( 34 - 34) =     24.61630  eV     1   --> A              
     e( 35 - 35) =     25.72319  eV     1   --> A              
     e( 36 - 36) =     26.00283  eV     1   --> A              
     e( 37 - 37) =     27.72361  eV     1   --> A              
     e( 38 - 38) =     28.59087  eV     1   --> A              
     e( 39 - 39) =     29.63951  eV     1   --> A              
     e( 40 - 40) =     29.77217  eV     1   --> A              

 **************************************************************************

 **************************************************************************

                    xk=(   0.41665,   0.43298,   0.00000  )

     Band symmetry, C_1 (1)     point group:

     e(  1 -  1) =    -44.21704  eV     1   --> A              
     e(  2 -  2) =    -44.20726  eV     1   --> A              
     e(  3 -  3) =    -20.59690  eV     1   --> A              
     e(  4 -  4) =    -20.58920  eV     1   --> A              
     e(  5 -  5) =    -20.56650  eV     1   --> A              
     e(  6 -  6) =    -20.49576  eV     1   --> A              
     e(  7 -  7) =    -20.47872  eV     1   --> A              
     e(  8 -  8) =    -20.46736  eV     1   --> A              
     e(  9 -  9) =     -0.68787  eV     1   --> A              
     e( 10 - 10) =     -0.47545  eV     1   --> A              
     e( 11 - 11) =      5.97238  eV     1   --> A              
     e( 12 - 12) =      7.03143  eV     1   --> A              
     e( 13 - 13) =      7.71932  eV     1   --> A              
     e( 14 - 14) =      8.17299  eV     1   --> A              
     e( 15 - 15) =      8.51112  eV     1   --> A              
     e( 16 - 16) =      8.60404  eV     1   --> A              
     e( 17 - 17) =     12.51810  eV     1   --> A              
     e( 18 - 18) =     12.53564  eV     1   --> A              
     e( 19 - 19) =     13.57317  eV     1   --> A              
     e( 20 - 20) =     14.41265  eV     1   --> A              
     e( 21 - 21) =     14.87715  eV     1   --> A              
     e( 22 - 22) =     15.10956  eV     1   --> A              
     e( 23 - 23) =     15.15356  eV     1   --> A              
     e( 24 - 24) =     15.95660  eV     1   --> A              
     e( 25 - 25) =     16.17288  eV     1   --> A              
     e( 26 - 26) =     16.65663  eV     1   --> A              
     e( 27 - 27) =     18.13979  eV     1   --> A              
     e( 28 - 28) =     19.18211  eV     1   --> A              
     e( 29 - 29) =     19.55479  eV     1   --> A              
     e( 30 - 30) =     20.53280  eV     1   --> A              
     e( 31 - 31) =     21.02969  eV     1   --> A              
     e( 32 - 32) =     21.15642  eV     1   --> A              
     e( 33 - 33) =     22.85958  eV     1   --> A              
     e( 34 - 34) =     24.51294  eV     1   --> A              
     e( 35 - 35) =     25.61247  eV     1   --> A              
     e( 36 - 36) =     25.90944  eV     1   --> A              
     e( 37 - 37) =     27.72158  eV     1   --> A              
     e( 38 - 38) =     28.54475  eV     1   --> A              
     e( 39 - 39) =     29.69788  eV     1   --> A              
     e( 40 - 40) =     29.71856  eV     1   --> A              

 **************************************************************************

 **************************************************************************

                    xk=(   0.41332,   0.43876,   0.00000  )

     Band symmetry, C_1 (1)     point group:

     e(  1 -  1) =    -44.21697  eV     1   --> A              
     e(  2 -  2) =    -44.20719  eV     1   --> A              
     e(  3 -  3) =    -20.59627  eV     1   --> A              
     e(  4 -  4) =    -20.58842  eV     1   --> A              
     e(  5 -  5) =    -20.56538  eV     1   --> A              
     e(  6 -  6) =    -20.49787  eV     1   --> A              
     e(  7 -  7) =    -20.48065  eV     1   --> A              
     e(  8 -  8) =    -20.46726  eV     1   --> A              
     e(  9 -  9) =     -0.67802  eV     1   --> A              
     e( 10 - 10) =     -0.47427  eV     1   --> A              
     e( 11 - 11) =      5.99710  eV     1   --> A              
     e( 12 - 12) =      7.03201  eV     1   --> A              
     e( 13 - 13) =      7.73289  eV     1   --> A              
     e( 14 - 14) =      8.16514  eV     1   --> A              
     e( 15 - 15) =      8.43171  eV     1   --> A              
     e( 16 - 16) =      8.58441  eV     1   --> A              
     e( 17 - 17) =     12.53977  eV     1   --> A              
     e( 18 - 18) =     12.59501  eV     1   --> A              
     e( 19 - 19) =     13.55526  eV     1   --> A              
     e( 20 - 20) =     14.38332  eV     1   --> A              
     e( 21 - 21) =     14.85511  eV     1   --> A              
     e( 22 - 22) =     15.10659  eV     1   --> A              
     e( 23 - 23) =     15.17190  eV     1   --> A              
     e( 24 - 24) =     15.96763  eV     1   --> A              
     e( 25 - 25) =     16.15875  eV     1   --> A              
     e( 26 - 26) =     16.64032  eV     1   --> A              
     e( 27 - 27) =     18.07646  eV     1   --> A              
     e( 28 - 28) =     19.27146  eV     1   --> A              
     e( 29 - 29) =     19.62006  eV     1   --> A              
     e( 30 - 30) =     20.61614  eV     1   --> A              
     e( 31 - 31) =     21.03750  eV     1   --> A              
     e( 32 - 32) =     21.23328  eV     1   --> A              
     e( 33 - 33) =     22.79950  eV     1   --> A              
     e( 34 - 34) =     24.41035  eV     1   --> A              
     e( 35 - 35) =     25.50265  eV     1   --> A              
     e( 36 - 36) =     25.81397  eV     1   --> A              
     e( 37 - 37) =     27.72063  eV     1   --> A              
     e( 38 - 38) =     28.49859  eV     1   --> A              
     e( 39 - 39) =     29.62112  eV     1   --> A              
     e( 40 - 40) =     29.79605  eV     1   --> A              

 **************************************************************************

 **************************************************************************

                    xk=(   0.40998,   0.44453,   0.00000  )

     Band symmetry, C_1 (1)     point group:

     e(  1 -  1) =    -44.21689  eV     1   --> A              
     e(  2 -  2) =    -44.20712  eV     1   --> A              
     e(  3 -  3) =    -20.59570  eV     1   --> A              
     e(  4 -  4) =    -20.58755  eV     1   --> A              
     e(  5 -  5) =    -20.56423  eV     1   --> A              
     e(  6 -  6) =    -20.50002  eV     1   --> A              
     e(  7 -  7) =    -20.48262  eV     1   --> A              
     e(  8 -  8) =    -20.46716  eV     1   --> A              
     e(  9 -  9) =     -0.66803  eV     1   --> A              
     e( 10 - 10) =     -0.47312  eV     1   --> A              
     e( 11 - 11) =      6.02268  eV     1   --> A              
     e( 12 - 12) =      7.03253  eV     1   --> A              
     e( 13 - 13) =      7.74664  eV     1   --> A              
     e( 14 - 14) =      8.15722  eV     1   --> A              
[...]
     e( 35 - 36) =     25.29687  eV     2   -->   2 A              
     e( 37 - 38) =     26.90221  eV     2   -->   2 A              
     e( 39 - 40) =     30.80063  eV     2   -->   2 A              

 **************************************************************************

 **************************************************************************

                    xk=(   0.36331,   0.52534,   0.25043  )

     Band symmetry, C_1 (1)     point group:

     e(  1 -  1) =    -44.21133  eV     1   --> A              
     e(  2 -  2) =    -44.21092  eV     1   --> A              
     e(  3 -  3) =    -20.55667  eV     1   --> A              
     e(  4 -  4) =    -20.55627  eV     1   --> A              
     e(  5 -  5) =    -20.52932  eV     1   --> A              
     e(  6 -  6) =    -20.52895  eV     1   --> A              
     e(  7 -  7) =    -20.52226  eV     1   --> A              
     e(  8 -  8) =    -20.52187  eV     1   --> A              
     e(  9 - 10) =     -0.49820  eV     2   -->   2 A              
     e( 11 - 12) =      6.82942  eV     2   -->   2 A              
     e( 13 - 14) =      7.65831  eV     2   -->   2 A              
     e( 15 - 16) =      8.05154  eV     2   -->   2 A              
     e( 17 - 18) =     12.67981  eV     2   -->   2 A              
     e( 19 - 19) =     14.54837  eV     1   --> A              
     e( 20 - 20) =     14.54861  eV     1   --> A              
     e( 21 - 21) =     14.68315  eV     1   --> A              
     e( 22 - 22) =     14.68329  eV     1   --> A              
     e( 23 - 24) =     14.98619  eV     2   -->   2 A              
     e( 25 - 26) =     17.03575  eV     2   -->   2 A              
     e( 27 - 28) =     18.64625  eV     2   -->   2 A              
     e( 29 - 30) =     19.68888  eV     2   -->   2 A              
     e( 31 - 32) =     22.12036  eV     2   -->   2 A              
     e( 33 - 34) =     23.48189  eV     2   -->   2 A              
     e( 35 - 36) =     25.30791  eV     2   -->   2 A              
     e( 37 - 38) =     26.85182  eV     2   -->   2 A              
     e( 39 - 40) =     30.78077  eV     2   -->   2 A              

 **************************************************************************

 **************************************************************************

                    xk=(   0.35997,   0.53111,   0.25043  )

     Band symmetry, C_1 (1)     point group:

     e(  1 -  1) =    -44.21129  eV     1   --> A              
     e(  2 -  2) =    -44.21088  eV     1   --> A              
     e(  3 -  3) =    -20.55500  eV     1   --> A              
     e(  4 -  4) =    -20.55460  eV     1   --> A              
     e(  5 -  5) =    -20.52925  eV     1   --> A              
     e(  6 -  6) =    -20.52888  eV     1   --> A              
     e(  7 -  7) =    -20.52442  eV     1   --> A              
     e(  8 -  8) =    -20.52402  eV     1   --> A              
     e(  9 - 10) =     -0.49458  eV     2   -->   2 A              
     e( 11 - 12) =      6.85721  eV     2   -->   2 A              
     e( 13 - 14) =      7.61515  eV     2   -->   2 A              
     e( 15 - 16) =      8.05004  eV     2   -->   2 A              
     e( 17 - 18) =     12.69011  eV     2   -->   2 A              
     e( 19 - 19) =     14.55299  eV     1   --> A              
     e( 20 - 20) =     14.55323  eV     1   --> A              
     e( 21 - 21) =     14.68734  eV     1   --> A              
     e( 22 - 22) =     14.68748  eV     1   --> A              
     e( 23 - 24) =     14.96854  eV     2   -->   2 A              
     e( 25 - 26) =     17.04904  eV     2   -->   2 A              
     e( 27 - 28) =     18.69347  eV     2   -->   2 A              
     e( 29 - 30) =     19.62681  eV     2   -->   2 A              
     e( 31 - 32) =     22.16794  eV     2   -->   2 A              
     e( 33 - 34) =     23.45323  eV     2   -->   2 A              
     e( 35 - 36) =     25.32060  eV     2   -->   2 A              
     e( 37 - 38) =     26.80326  eV     2   -->   2 A              
     e( 39 - 40) =     30.76260  eV     2   -->   2 A              

 **************************************************************************

 **************************************************************************

                    xk=(   0.35664,   0.53689,   0.25043  )

     Band symmetry, C_1 (1)     point group:

     e(  1 -  1) =    -44.21125  eV     1   --> A              
     e(  2 -  2) =    -44.21084  eV     1   --> A              
     e(  3 -  3) =    -20.55332  eV     1   --> A              
     e(  4 -  4) =    -20.55292  eV     1   --> A              
     e(  5 -  5) =    -20.52920  eV     1   --> A              
     e(  6 -  6) =    -20.52885  eV     1   --> A              
     e(  7 -  7) =    -20.52652  eV     1   --> A              
     e(  8 -  8) =    -20.52614  eV     1   --> A              
     e(  9 - 10) =     -0.49129  eV     2   -->   2 A              
     e( 11 - 12) =      6.88428  eV     2   -->   2 A              
     e( 13 - 14) =      7.57437  eV     2   -->   2 A              
     e( 15 - 16) =      8.04868  eV     2   -->   2 A              
     e( 17 - 18) =     12.69912  eV     2   -->   2 A              
     e( 19 - 19) =     14.55849  eV     1   --> A              
     e( 20 - 20) =     14.55875  eV     1   --> A              
     e( 21 - 21) =     14.69188  eV     1   --> A              
     e( 22 - 22) =     14.69200  eV     1   --> A              
     e( 23 - 24) =     14.95093  eV     2   -->   2 A              
     e( 25 - 26) =     17.06120  eV     2   -->   2 A              
     e( 27 - 28) =     18.73863  eV     2   -->   2 A              
     e( 29 - 30) =     19.56796  eV     2   -->   2 A              
     e( 31 - 32) =     22.21114  eV     2   -->   2 A              
     e( 33 - 34) =     23.42722  eV     2   -->   2 A              
     e( 35 - 36) =     25.33456  eV     2   -->   2 A              
     e( 37 - 38) =     26.75713  eV     2   -->   2 A              
     e( 39 - 40) =     30.74622  eV     2   -->   2 A              

 **************************************************************************

 **************************************************************************

                    xk=(   0.35330,   0.54266,   0.25043  )

     Band symmetry, C_1 (1)     point group:

     e(  1 -  1) =    -44.21121  eV     1   --> A              
     e(  2 -  2) =    -44.21080  eV     1   --> A              
     e(  3 -  3) =    -20.55161  eV     1   --> A              
     e(  4 -  4) =    -20.55121  eV     1   --> A              
     e(  5 -  5) =    -20.52925  eV     1   --> A              
     e(  6 -  6) =    -20.52912  eV     1   --> A              
     e(  7 -  7) =    -20.52828  eV     1   --> A              
     e(  8 -  8) =    -20.52814  eV     1   --> A              
     e(  9 - 10) =     -0.48836  eV     2   -->   2 A              
     e( 11 - 12) =      6.91025  eV     2   -->   2 A              
     e( 13 - 14) =      7.53642  eV     2   -->   2 A              
     e( 15 - 16) =      8.04747  eV     2   -->   2 A              
     e( 17 - 18) =     12.70685  eV     2   -->   2 A              
     e( 19 - 19) =     14.56472  eV     1   --> A              
     e( 20 - 20) =     14.56499  eV     1   --> A              
     e( 21 - 21) =     14.69656  eV     1   --> A              
     e( 22 - 22) =     14.69668  eV     1   --> A              
     e( 23 - 24) =     14.93367  eV     2   -->   2 A              
     e( 25 - 26) =     17.07212  eV     2   -->   2 A              
     e( 27 - 28) =     18.78129  eV     2   -->   2 A              
     e( 29 - 30) =     19.51290  eV     2   -->   2 A              
     e( 31 - 32) =     22.24937  eV     2   -->   2 A              
     e( 33 - 34) =     23.40427  eV     2   -->   2 A              
     e( 35 - 36) =     25.34928  eV     2   -->   2 A              
     e( 37 - 38) =     26.71410  eV     2   -->   2 A              
     e( 39 - 40) =     30.73176  eV     2   -->   2 A              

 **************************************************************************

 **************************************************************************

                    xk=(   0.34997,   0.54843,   0.25043  )

     Band symmetry, C_1 (1)     point group:

     e(  1 -  1) =    -44.21118  eV     1   --> A              
     e(  2 -  2) =    -44.21077  eV     1   --> A              
     e(  3 -  3) =    -20.54990  eV     1   --> A              
     e(  4 -  4) =    -20.54950  eV     1   --> A              
     e(  5 -  5) =    -20.53084  eV     1   --> A              
     e(  6 -  6) =    -20.53047  eV     1   --> A              
     e(  7 -  7) =    -20.52893  eV     1   --> A              
     e(  8 -  8) =    -20.52857  eV     1   --> A              
     e(  9 - 10) =     -0.48582  eV     2   -->   2 A              
     e( 11 - 12) =      6.93456  eV     2   -->   2 A              
     e( 13 - 14) =      7.50189  eV     2   -->   2 A              
     e( 15 - 16) =      8.04642  eV     2   -->   2 A              
     e( 17 - 18) =     12.71331  eV     2   -->   2 A              
     e( 19 - 19) =     14.57149  eV     1   --> A              
     e( 20 - 20) =     14.57177  eV     1   --> A              
     e( 21 - 21) =     14.70114  eV     1   --> A              
     e( 22 - 22) =     14.70124  eV     1   --> A              
     e( 23 - 24) =     14.91717  eV     2   -->   2 A              
     e( 25 - 26) =     17.08168  eV     2   -->   2 A              
     e( 27 - 28) =     18.82085  eV     2   -->   2 A              
     e( 29 - 30) =     19.46239  eV     2   -->   2 A              
     e( 31 - 32) =     22.28213  eV     2   -->   2 A              
     e( 33 - 34) =     23.38474  eV     2   -->   2 A              
     e( 35 - 36) =     25.36416  eV     2   -->   2 A              
     e( 37 - 38) =     26.67498  eV     2   -->   2 A              
     e( 39 - 40) =     30.71930  eV     2   -->   2 A              

 **************************************************************************

 **************************************************************************

                    xk=(   0.34664,   0.55420,   0.25043  )

     Band symmetry, C_1 (1)     point group:

     e(  1 -  1) =    -44.21116  eV     1   --> A              
     e(  2 -  2) =    -44.21075  eV     1   --> A              
     e(  3 -  3) =    -20.54818  eV     1   --> A              
     e(  4 -  4) =    -20.54778  eV     1   --> A              
     e(  5 -  5) =    -20.53281  eV     1   --> A              
     e(  6 -  6) =    -20.53242  eV     1   --> A              
     e(  7 -  7) =    -20.52894  eV     1   --> A              
     e(  8 -  8) =    -20.52856  eV     1   --> A              
     e(  9 - 10) =     -0.48368  eV     2   -->   2 A              
     e( 11 - 12) =      6.95649  eV     2   -->   2 A              
     e( 13 - 14) =      7.47153  eV     2   -->   2 A              
     e( 15 - 16) =      8.04553  eV     2   -->   2 A              
     e( 17 - 18) =     12.71852  eV     2   -->   2 A              
     e( 19 - 19) =     14.57849  eV     1   --> A              
     e( 20 - 20) =     14.57878  eV     1   --> A              
     e( 21 - 22) =     14.70529  eV     2   -->   2 A              
     e( 23 - 24) =     14.90200  eV     2   -->   2 A              
     e( 25 - 26) =     17.08976  eV     2   -->   2 A              
     e( 27 - 28) =     18.85642  eV     2   -->   2 A              
     e( 29 - 30) =     19.41749  eV     2   -->   2 A              
     e( 31 - 32) =     22.30902  eV     2   -->   2 A              
     e( 33 - 34) =     23.36890  eV     2   -->   2 A              
     e( 35 - 36) =     25.37843  eV     2   -->   2 A              
     e( 37 - 38) =     26.64067  eV     2   -->   2 A              
     e( 39 - 40) =     30.70892  eV     2   -->   2 A              

 **************************************************************************

 **************************************************************************

                    xk=(   0.34330,   0.55998,   0.25043  )

     Band symmetry, C_1 (1)     point group:

     e(  1 -  1) =    -44.21114  eV     1   --> A              
     e(  2 -  2) =    -44.21073  eV     1   --> A              
     e(  3 -  3) =    -20.54646  eV     1   --> A              
     e(  4 -  4) =    -20.54608  eV     1   --> A              
     e(  5 -  5) =    -20.53473  eV     1   --> A              
     e(  6 -  6) =    -20.53435  eV     1   --> A              
     e(  7 -  7) =    -20.52892  eV     1   --> A              
     e(  8 -  8) =    -20.52854  eV     1   --> A              
     e(  9 - 10) =     -0.48197  eV     2   -->   2 A              
     e( 11 - 12) =      6.97516  eV     2   -->   2 A              
     e( 13 - 14) =      7.44626  eV     2   -->   2 A              
     e( 15 - 16) =      8.04481  eV     2   -->   2 A              
     e( 17 - 18) =     12.72251  eV     2   -->   2 A              
     e( 19 - 19) =     14.58532  eV     1   --> A              
     e( 20 - 20) =     14.58562  eV     1   --> A              
     e( 21 - 22) =     14.70862  eV     2   -->   2 A              
     e( 23 - 24) =     14.88887  eV     2   -->   2 A              
     e( 25 - 26) =     17.09624  eV     2   -->   2 A              
     e( 27 - 28) =     18.88672  eV     2   -->   2 A              
     e( 29 - 30) =     19.37963  eV     2   -->   2 A              
     e( 31 - 32) =     22.32979  eV     2   -->   2 A              
     e( 33 - 34) =     23.35689  eV     2   -->   2 A              
     e( 35 - 36) =     25.39123  eV     2   -->   2 A              
     e( 37 - 38) =     26.61217  eV     2   -->   2 A              
     e( 39 - 40) =     30.70071  eV     2   -->   2 A              

 **************************************************************************

 **************************************************************************

                    xk=(   0.33997,   0.56575,   0.25043  )

     Band symmetry, C_1 (1)     point group:

     e(  1 -  1) =    -44.21112  eV     1   --> A              
     e(  2 -  2) =    -44.21071  eV     1   --> A              
     e(  3 -  3) =    -20.54479  eV     1   --> A              
     e(  4 -  4) =    -20.54443  eV     1   --> A              
     e(  5 -  5) =    -20.53654  eV     1   --> A              
     e(  6 -  6) =    -20.53618  eV     1   --> A              
     e(  7 -  7) =    -20.52890  eV     1   --> A              
     e(  8 -  8) =    -20.52852  eV     1   --> A              
     e(  9 - 10) =     -0.48073  eV     2   -->   2 A              
     e( 11 - 12) =      6.98953  eV     2   -->   2 A              
     e( 13 - 14) =      7.42715  eV     2   -->   2 A              
     e( 15 - 16) =      8.04427  eV     2   -->   2 A              
     e( 17 - 18) =     12.72530  eV     2   -->   2 A              
     e( 19 - 19) =     14.59139  eV     1   --> A              
     e( 20 - 20) =     14.59170  eV     1   --> A              
     e( 21 - 22) =     14.71077  eV     2   -->   2 A              
     e( 23 - 24) =     14.87866  eV     2   -->   2 A              
     e( 25 - 26) =     17.10100  eV     2   -->   2 A              
     e( 27 - 28) =     18.91010  eV     2   -->   2 A              
     e( 29 - 30) =     19.35064  eV     2   -->   2 A              
     e( 31 - 32) =     22.34436  eV     2   -->   2 A              
     e( 33 - 34) =     23.34866  eV     2   -->   2 A              
     e( 35 - 36) =     25.40156  eV     2   -->   2 A              
     e( 37 - 38) =     26.59056  eV     2   -->   2 A              
     e( 39 - 40) =     30.69475  eV     2   -->   2 A              

 **************************************************************************

 **************************************************************************

                    xk=(   0.33663,   0.57152,   0.25043  )

     Band symmetry, C_1 (1)     point group:

     e(  1 -  1) =    -44.21111  eV     1   --> A              
     e(  2 -  2) =    -44.21070  eV     1   --> A              
     e(  3 -  3) =    -20.54327  eV     1   --> A              
     e(  4 -  4) =    -20.54298  eV     1   --> A              
     e(  5 -  5) =    -20.53809  eV     1   --> A              
     e(  6 -  6) =    -20.53781  eV     1   --> A              
     e(  7 -  7) =    -20.52889  eV     1   --> A              
     e(  8 -  8) =    -20.52851  eV     1   --> A              
     e(  9 - 10) =     -0.47996  eV     2   -->   2 A              
     e( 11 - 12) =      6.99860  eV     2   -->   2 A              
     e( 13 - 14) =      7.41522  eV     2   -->   2 A              
     e( 15 - 16) =      8.04394  eV     2   -->   2 A              
     e( 17 - 18) =     12.72694  eV     2   -->   2 A              
     e( 19 - 19) =     14.59588  eV     1   --> A              
     e( 20 - 20) =     14.59620  eV     1   --> A              
     e( 21 - 22) =     14.71164  eV     2   -->   2 A              
     e( 23 - 24) =     14.87217  eV     2   -->   2 A              
     e( 25 - 26) =     17.10394  eV     2   -->   2 A              
     e( 27 - 28) =     18.92482  eV     2   -->   2 A              
     e( 29 - 30) =     19.33243  eV     2   -->   2 A              
     e( 31 - 32) =     22.35285  eV     2   -->   2 A              
     e( 33 - 34) =     23.34402  eV     2   -->   2 A              
     e( 35 - 36) =     25.40844  eV     2   -->   2 A              
     e( 37 - 38) =     26.57690  eV     2   -->   2 A              
     e( 39 - 40) =     30.69111  eV     2   -->   2 A              

 **************************************************************************

 **************************************************************************

                    xk=(   0.33330,   0.57729,   0.25043  )

     Band symmetry, C_1 (1)     point group:

     e(  1 -  1) =    -44.21111  eV     1   --> A              
     e(  2 -  2) =    -44.21070  eV     1   --> A              
     e(  3 -  4) =    -20.54237  eV     2   -->   2 A              
     e(  5 -  6) =    -20.53874  eV     2   -->   2 A              
     e(  7 -  7) =    -20.52889  eV     1   --> A              
     e(  8 -  8) =    -20.52850  eV     1   --> A              
     e(  9 - 10) =     -0.47970  eV     2   -->   2 A              
     e( 11 - 12) =      7.00170  eV     2   -->   2 A              
     e( 13 - 14) =      7.41117  eV     2   -->   2 A              
     e( 15 - 16) =      8.04382  eV     2   -->   2 A              
     e( 17 - 18) =     12.72749  eV     2   -->   2 A              
     e( 19 - 19) =     14.59767  eV     1   --> A              
     e( 20 - 20) =     14.59799  eV     1   --> A              
     e( 21 - 22) =     14.71172  eV     2   -->   2 A              
     e( 23 - 24) =     14.86996  eV     2   -->   2 A              
     e( 25 - 26) =     17.10495  eV     2   -->   2 A              
     e( 27 - 28) =     18.92978  eV     2   -->   2 A              
     e( 29 - 30) =     19.32626  eV     2   -->   2 A              
     e( 31 - 32) =     22.35560  eV     2   -->   2 A              
     e( 33 - 34) =     23.34257  eV     2   -->   2 A              
     e( 35 - 36) =     25.41092  eV     2   -->   2 A              
     e( 37 - 38) =     26.57215  eV     2   -->   2 A              
     e( 39 - 40) =     30.68986  eV     2   -->   2 A              

 **************************************************************************

     BANDS        :   2m16.26s CPU   7m 9.15s WALL


   This run was terminated on:   7:54:12   6Oct2023            

=------------------------------------------------------------------------------=
   JOB DONE.
=------------------------------------------------------------------------------=
