
     Program BANDS v.6.7MaX starts on 26Oct2023 at  5: 4:34 

     This program is part of the open-source Quantum ESPRESSO suite
     for quantum simulation of materials; please cite
         "P. Giannozzi et al., J. Phys.:Condens. Matter 21 395502 (2009);
         "P. Giannozzi et al., J. Phys.:Condens. Matter 29 465901 (2017);
          URL http://www.quantum-espresso.org", 
     in publications or presentations arising from this work. More details at
     http://www.quantum-espresso.org/quote

     Parallel version (MPI), running on     4 processors

     MPI processes distributed on     1 nodes
     R & G space division:  proc/nbgrp/npool/nimage =       4

     Reading xml data from directory:

     ../out/m2.save/
     file Mg.pbe-spnl-rrkjus_psl.1.0.0.UPF: wavefunction(s)  2P renormalized
     file Bi.pbe-dn-rrkjus_psl.1.0.0.UPF: wavefunction(s)  5D renormalized

     IMPORTANT: XC functional enforced from input :
     Exchange-correlation= PBE
                           (   1   4   3   4   0   0   0)
     Any further DFT definition will be discarded
     Please, verify this is what you really want


     Parallelization info
     --------------------
     sticks:   dense  smooth     PW     G-vecs:    dense   smooth      PW
     Min         486     241     70                27690     9785    1486
     Max         487     243     71                27701     9790    1491
     Sum        1945     967    283               110773    39149    5955


     Check: negative core charge=   -0.000010
     Reading collected, re-writing distributed wavefunctions
     high-symmetry point:  0.0000 0.0000 0.0000   x coordinate   0.0000
     high-symmetry point:  0.0000 0.0000-0.2532   x coordinate   0.2532
     high-symmetry point: -0.1250 0.0722 0.0000   x coordinate   0.5446
     high-symmetry point: -0.1250 0.0722-0.2532   x coordinate   0.7977
     high-symmetry point: -0.2500 0.1443 0.0000   x coordinate   1.0892
     high-symmetry point: -0.2500 0.1443-0.2532   x coordinate   1.3423
     high-symmetry point: -0.3750 0.2165 0.0000   x coordinate   1.6337
     high-symmetry point: -0.3750 0.2165-0.2532   x coordinate   1.8869
     high-symmetry point:  0.5000-0.2887 0.0000   x coordinate   1.8869
     high-symmetry point:  0.5000-0.2887-0.2532   x coordinate   2.1400
     high-symmetry point: -0.2500 0.0000 0.0000   x coordinate   2.1400
     high-symmetry point: -0.2500 0.0000-0.2532   x coordinate   2.3932
     high-symmetry point: -0.3750 0.0722 0.0000   x coordinate   2.6846
     high-symmetry point: -0.3750 0.0722-0.2532   x coordinate   2.9378
     high-symmetry point: -0.5000 0.1443 0.0000   x coordinate   3.2292
     high-symmetry point: -0.5000 0.1443-0.2532   x coordinate   3.4824
     high-symmetry point: -0.5000 0.0000 0.0000   x coordinate   3.7738
     high-symmetry point: -0.5000 0.0000-0.2532   x coordinate   4.0269
     high-symmetry point: -0.6250 0.0722 0.0000   x coordinate   4.3183
     high-symmetry point: -0.6250 0.0722-0.2532   x coordinate   4.5715
     high-symmetry point:  0.1250 0.0722 0.1266   x coordinate   4.5715
     high-symmetry point:  0.1250 0.0722 0.2532   x coordinate   4.6981
     high-symmetry point:  0.2500 0.1443 0.1266   x coordinate   4.8901
     high-symmetry point:  0.2500 0.1443 0.2532   x coordinate   5.0166
     high-symmetry point:  0.3750 0.2165 0.1266   x coordinate   5.2086
     high-symmetry point:  0.3750 0.2165 0.2532   x coordinate   5.3352
     high-symmetry point:  0.3750 0.0722 0.1266   x coordinate   5.5272
     high-symmetry point:  0.3750 0.0722 0.2532   x coordinate   5.6538
     high-symmetry point:  0.5000 0.1443 0.1266   x coordinate   5.8457
     high-symmetry point:  0.5000 0.1443 0.2532   x coordinate   5.9723

     Plottable bands (eV) written to file Mg3Bi2.bands.gnu
     Bands written to file Mg3Bi2.bands

 **************************************************************************

                    xk=(   0.00000,   0.00000,   0.00000  )

     point group D_3d (-3m) 
     there are  6 classes
     the character table:

       E     2C3   3C2'  i     2S6   3s_d 
A_1g   1.00  1.00  1.00  1.00  1.00  1.00
A_2g   1.00  1.00 -1.00  1.00  1.00 -1.00
E_g    2.00 -1.00  0.00  2.00 -1.00  0.00
A_1u   1.00  1.00  1.00 -1.00 -1.00 -1.00
A_2u   1.00  1.00 -1.00 -1.00 -1.00  1.00
E_u    2.00 -1.00  0.00 -2.00  1.00  0.00

     the symmetry operations in each class and the name of the first element:

     E        1
                                                                 
     2C3      3    4
                                                                 
     3C2'     2    5    6
                                                                 
     i        7
                                                                 
     2S6      9   10
                                                                 
     3s_d     8   11   12
                                                                 

     Band symmetry, D_3d (-3m)  point group:

     e(  1 -  1) =    -69.75928  eV     1   --> A_1g L_1       
     e(  2 -  2) =    -69.16052  eV     1   --> A_1g L_1       
     e(  3 -  3) =    -69.15962  eV     1   --> A_2u L_2'      
     e(  4 -  4) =    -36.51081  eV     1   --> A_2u L_2'      
     e(  5 -  6) =    -36.50723  eV     2   --> E_u  L_3'      
     e(  7 -  8) =    -35.91352  eV     2   --> E_g  L_3       
     e(  9 - 10) =    -35.91044  eV     2   --> E_u  L_3'      
     e( 11 - 11) =    -35.90916  eV     1   --> A_1g L_1       
     e( 12 - 12) =    -35.90883  eV     1   --> A_2u L_2'      
     e( 13 - 14) =    -14.72747  eV     2   --> E_u  L_3'      
     e( 15 - 16) =    -14.72696  eV     2   --> E_g  L_3       
     e( 17 - 17) =    -14.71740  eV     1   --> A_2u L_2'      
     e( 18 - 18) =    -14.71638  eV     1   --> A_1g L_1       
     e( 19 - 20) =    -14.69805  eV     2   --> E_g  L_3       
     e( 21 - 22) =    -14.68809  eV     2   --> E_u  L_3'      
     e( 23 - 23) =     -3.96911  eV     1   --> A_1g L_1       
     e( 24 - 24) =     -3.08997  eV     1   --> A_2u L_2'      
     e( 25 - 25) =      2.63054  eV     1   --> A_1g L_1       
     e( 26 - 27) =      6.45650  eV     2   --> E_g  L_3       
     e( 28 - 29) =      7.15891  eV     2   --> E_u  L_3'      
     e( 30 - 30) =      7.20988  eV     1   --> A_1g L_1       
     e( 31 - 31) =      7.40850  eV     1   --> A_2u L_2'      
     e( 32 - 32) =      8.22383  eV     1   --> A_2u L_2'      
     e( 33 - 34) =     10.51919  eV     2   --> E_u  L_3'      
     e( 35 - 35) =     11.21676  eV     1   --> A_1g L_1       
     e( 36 - 36) =     11.43510  eV     1   -->   ?

 **************************************************************************

 **************************************************************************

                    xk=(   0.00000,   0.00000,  -0.12658  )

     point group C_3v (3m)  
     there are  3 classes
     the character table:

       E     2C3   3s_v 
A_1    1.00  1.00  1.00
A_2    1.00  1.00 -1.00
E      2.00 -1.00  0.00

     the symmetry operations in each class and the name of the first element:

     E        1
                                                                 
     2C3      2    3
                                                                 
     3s_v     4    5    6
                                                                 

     Band symmetry, C_3v (3m)   point group:

     e(  1 -  1) =    -69.75926  eV     1   --> A_1  L_1       
     e(  2 -  2) =    -69.16043  eV     1   --> A_1  L_1       
     e(  3 -  3) =    -69.15966  eV     1   --> A_1  L_1       
     e(  4 -  4) =    -36.50975  eV     1   --> A_1  L_1       
     e(  5 -  6) =    -36.50741  eV     2   --> E    L_3       
     e(  7 -  8) =    -35.91416  eV     2   --> E    L_3       
     e(  9 - 10) =    -35.91016  eV     2   --> E    L_3       
     e( 11 - 11) =    -35.90968  eV     1   --> A_1  L_1       
     e( 12 - 12) =    -35.90618  eV     1   --> A_1  L_1       
     e( 13 - 14) =    -14.72829  eV     2   --> E    L_3       
     e( 15 - 16) =    -14.72607  eV     2   --> E    L_3       
     e( 17 - 17) =    -14.71764  eV     1   --> A_1  L_1       
     e( 18 - 18) =    -14.71609  eV     1   --> A_1  L_1       
     e( 19 - 20) =    -14.69811  eV     2   --> E    L_3       
     e( 21 - 22) =    -14.68811  eV     2   --> E    L_3       
     e( 23 - 23) =     -3.90872  eV     1   --> A_1  L_1       
     e( 24 - 24) =     -3.18582  eV     1   --> A_1  L_1       
     e( 25 - 25) =      2.90588  eV     1   --> A_1  L_1       
     e( 26 - 26) =      6.04175  eV     1   --> A_1  L_1       
     e( 27 - 28) =      6.51882  eV     2   --> E    L_3       
     e( 29 - 30) =      7.09049  eV     2   --> E    L_3       
     e( 31 - 31) =      8.09282  eV     1   --> A_1  L_1       
     e( 32 - 32) =      8.53181  eV     1   --> A_1  L_1       
     e( 33 - 34) =     10.32295  eV     2   --> E    L_3       
     e( 35 - 35) =     11.06689  eV     1   -->   ?
     e( 36 - 36) =     11.60399  eV     1   -->   ?

 **************************************************************************

 **************************************************************************

                    xk=(   0.00000,   0.00000,  -0.25316  )

     Band symmetry, C_3v (3m)   point group:

     e(  1 -  1) =    -69.75932  eV     1   --> A_1  L_1       
     e(  2 -  2) =    -69.16048  eV     1   --> A_1  L_1       
     e(  3 -  3) =    -69.15974  eV     1   --> A_1  L_1       
     e(  4 -  4) =    -36.51146  eV     1   --> A_1  L_1       
     e(  5 -  6) =    -36.50792  eV     2   --> E    L_3       
     e(  7 -  8) =    -35.91497  eV     2   --> E    L_3       
     e(  9 -  9) =    -35.91143  eV     1   --> A_1  L_1       
     e( 10 - 11) =    -35.91034  eV     2   --> E    L_3       
     e( 12 - 12) =    -35.90777  eV     1   --> A_1  L_1       
     e( 13 - 14) =    -14.72892  eV     2   --> E    L_3       
     e( 15 - 16) =    -14.72541  eV     2   --> E    L_3       
     e( 17 - 17) =    -14.71791  eV     1   --> A_1  L_1       
     e( 18 - 18) =    -14.71577  eV     1   --> A_1  L_1       
     e( 19 - 20) =    -14.69822  eV     2   --> E    L_3       
     e( 21 - 22) =    -14.68819  eV     2   --> E    L_3       
     e( 23 - 23) =     -3.75959  eV     1   --> A_1  L_1       
     e( 24 - 24) =     -3.39064  eV     1   --> A_1  L_1       
     e( 25 - 25) =      3.64831  eV     1   --> A_1  L_1       
     e( 26 - 26) =      4.78533  eV     1   --> A_1  L_1       
     e( 27 - 28) =      6.68743  eV     2   --> E    L_3       
     e( 29 - 30) =      6.90993  eV     2   --> E    L_3       
     e( 31 - 31) =      8.40623  eV     1   --> A_1  L_1       
     e( 32 - 32) =      8.77666  eV     1   --> A_1  L_1       
     e( 33 - 34) =     10.14385  eV     2   --> E    L_3       
     e( 35 - 35) =     10.81624  eV     1   --> A_1  L_1       
     e( 36 - 36) =     11.06461  eV     1   -->   ?

 **************************************************************************

 **************************************************************************

                    xk=(  -0.12500,   0.07217,   0.00000  )

     point group C_s (m)    
     there are  2 classes
     the character table:

       E     s    
A'     1.00  1.00
A''    1.00 -1.00

     the symmetry operations in each class and the name of the first element:

     E        1
                                                                 
     s        2
                                                                 

     Band symmetry, C_s (m)     point group:

     e(  1 -  1) =    -69.75924  eV     1   --> A'             
     e(  2 -  2) =    -69.16044  eV     1   --> A'             
     e(  3 -  3) =    -69.15961  eV     1   --> A'             
     e(  4 -  4) =    -36.51013  eV     1   --> A'             
     e(  5 -  6) =    -36.50708  eV     2   --> A'             
     e(  5 -  6) =    -36.50708  eV     2   --> A''            
     e(  7 -  7) =    -35.91347  eV     1   --> A'             
     e(  8 -  8) =    -35.91337  eV     1   --> A''            
     e(  9 -  9) =    -35.91089  eV     1   --> A'             
     e( 10 - 10) =    -35.91017  eV     1   --> A''            
     e( 11 - 11) =    -35.90842  eV     1   --> A'             
     e( 12 - 12) =    -35.90753  eV     1   --> A'             
     e( 13 - 13) =    -14.72862  eV     1   --> A'             
     e( 14 - 14) =    -14.72777  eV     1   --> A''            
     e( 15 - 15) =    -14.72644  eV     1   --> A'             
     e( 16 - 16) =    -14.72578  eV     1   --> A''            
     e( 17 - 17) =    -14.71692  eV     1   --> A'             
     e( 18 - 18) =    -14.71591  eV     1   --> A'             
     e( 19 - 19) =    -14.69778  eV     1   --> A'             
     e( 20 - 20) =    -14.69747  eV     1   --> A''            
     e( 21 - 21) =    -14.68856  eV     1   --> A'             
     e( 22 - 22) =    -14.68764  eV     1   --> A''            
     e( 23 - 23) =     -3.88805  eV     1   --> A'             
     e( 24 - 24) =     -3.05213  eV     1   --> A'             
     e( 25 - 25) =      2.76292  eV     1   --> A'             
     e( 26 - 26) =      5.40548  eV     1   --> A'             
     e( 27 - 27) =      5.88616  eV     1   --> A'             
     e( 28 - 28) =      6.15838  eV     1   --> A''            
     e( 29 - 29) =      7.16900  eV     1   --> A''            
     e( 30 - 30) =      7.33490  eV     1   --> A'             
     e( 31 - 31) =      8.52605  eV     1   --> A'             
     e( 32 - 32) =      8.93941  eV     1   --> A'             
     e( 33 - 33) =      9.94449  eV     1   --> A'             
     e( 34 - 34) =     10.69350  eV     1   --> A''            
     e( 35 - 35) =     10.78770  eV     1   --> A'             
     e( 36 - 36) =     11.37631  eV     1   -->   ?

 **************************************************************************

 **************************************************************************

                    xk=(  -0.12500,   0.07217,  -0.12658  )

     Band symmetry, C_s (m)     point group:

     e(  1 -  1) =    -69.75927  eV     1   --> A'             
     e(  2 -  2) =    -69.16044  eV     1   --> A'             
     e(  3 -  3) =    -69.15966  eV     1   --> A'             
     e(  4 -  4) =    -36.51083  eV     1   --> A'             
     e(  5 -  5) =    -36.50757  eV     1   --> A'             
     e(  6 -  6) =    -36.50694  eV     1   --> A''            
     e(  7 -  7) =    -35.91393  eV     1   --> A'             
     e(  8 -  8) =    -35.91348  eV     1   --> A''            
     e(  9 -  9) =    -35.91174  eV     1   --> A'             
     e( 10 - 10) =    -35.90991  eV     1   --> A''            
     e( 11 - 11) =    -35.90945  eV     1   --> A'             
     e( 12 - 12) =    -35.90750  eV     1   --> A'             
     e( 13 - 13) =    -14.72942  eV     1   --> A'             
     e( 14 - 14) =    -14.72709  eV     1   --> A''            
     e( 15 - 15) =    -14.72635  eV     1   --> A''            
     e( 16 - 16) =    -14.72564  eV     1   --> A'             
     e( 17 - 17) =    -14.71714  eV     1   --> A'             
     e( 18 - 18) =    -14.71569  eV     1   --> A'             
     e( 19 - 20) =    -14.69767  eV     2   --> A'             
     e( 19 - 20) =    -14.69767  eV     2   --> A''            
     e( 21 - 21) =    -14.68874  eV     1   --> A'             
     e( 22 - 22) =    -14.68758  eV     1   --> A''            
     e( 23 - 23) =     -3.83031  eV     1   --> A'             
     e( 24 - 24) =     -3.14165  eV     1   --> A'             
     e( 25 - 25) =      3.00539  eV     1   --> A'             
     e( 26 - 26) =      5.37690  eV     1   --> A'             
     e( 27 - 27) =      5.64493  eV     1   --> A'             
     e( 28 - 28) =      6.25787  eV     1   --> A''            
     e( 29 - 29) =      6.99819  eV     1   --> A''            
     e( 30 - 30) =      7.00533  eV     1   --> A'             
     e( 31 - 31) =      8.75353  eV     1   --> A'             
     e( 32 - 32) =      8.91371  eV     1   --> A'             
     e( 33 - 33) =     10.04739  eV     1   --> A'             
     e( 34 - 34) =     10.82113  eV     1   --> A''            
     e( 35 - 35) =     10.85986  eV     1   --> A'             
     e( 36 - 36) =     10.97142  eV     1   --> A'             

 **************************************************************************

 **************************************************************************

                    xk=(  -0.12500,   0.07217,  -0.25316  )

     Band symmetry, C_s (m)     point group:

     e(  1 -  1) =    -69.75926  eV     1   --> A'             
     e(  2 -  2) =    -69.16041  eV     1   --> A'             
     e(  3 -  3) =    -69.15969  eV     1   --> A'             
     e(  4 -  4) =    -36.51034  eV     1   --> A'             
     e(  5 -  5) =    -36.50756  eV     1   --> A''            
     e(  6 -  6) =    -36.50698  eV     1   --> A'             
     e(  7 -  7) =    -35.91431  eV     1   --> A''            
     e(  8 -  8) =    -35.91356  eV     1   --> A'             
     e(  9 -  9) =    -35.91110  eV     1   --> A'             
     e( 10 - 10) =    -35.91029  eV     1   --> A''            
     e( 11 - 11) =    -35.90931  eV     1   --> A'             
     e( 12 - 12) =    -35.90651  eV     1   --> A'             
     e( 13 - 13) =    -14.72957  eV     1   --> A'             
     e( 14 - 14) =    -14.72798  eV     1   --> A''            
     e( 15 - 16) =    -14.72543  eV     2   --> A'             
     e( 15 - 16) =    -14.72543  eV     2   --> A''            
     e( 17 - 17) =    -14.71731  eV     1   --> A'             
     e( 18 - 18) =    -14.71535  eV     1   --> A'             
     e( 19 - 19) =    -14.69776  eV     1   --> A'             
     e( 20 - 20) =    -14.69764  eV     1   --> A''            
     e( 21 - 21) =    -14.68866  eV     1   --> A'             
     e( 22 - 22) =    -14.68769  eV     1   --> A''            
     e( 23 - 23) =     -3.68638  eV     1   --> A'             
     e( 24 - 24) =     -3.33505  eV     1   --> A'             
     e( 25 - 25) =      3.65032  eV     1   --> A'             
     e( 26 - 26) =      4.61103  eV     1   --> A'             
     e( 27 - 27) =      5.86306  eV     1   --> A'             
     e( 28 - 28) =      6.45095  eV     1   --> A'             
     e( 29 - 29) =      6.48335  eV     1   --> A''            
     e( 30 - 30) =      6.71243  eV     1   --> A''            
     e( 31 - 31) =      8.86592  eV     1   --> A'             
     e( 32 - 32) =      9.19659  eV     1   --> A'             
     e( 33 - 33) =     10.01990  eV     1   --> A'             
     e( 34 - 34) =     10.51207  eV     1   --> A'             
     e( 35 - 35) =     10.64055  eV     1   --> A''            
     e( 36 - 36) =     11.50736  eV     1   -->   ?

 **************************************************************************

 **************************************************************************

                    xk=(  -0.25000,   0.14434,   0.00000  )

     Band symmetry, C_s (m)     point group:

     e(  1 -  1) =    -69.75924  eV     1   --> A'             
     e(  2 -  2) =    -69.16036  eV     1   --> A'             
     e(  3 -  3) =    -69.15970  eV     1   --> A'             
     e(  4 -  4) =    -36.51051  eV     1   --> A'             
     e(  5 -  5) =    -36.50758  eV     1   --> A''            
     e(  6 -  6) =    -36.50687  eV     1   --> A'             
     e(  7 -  7) =    -35.91428  eV     1   --> A''            
     e(  8 -  8) =    -35.91350  eV     1   --> A'             
     e(  9 -  9) =    -35.91175  eV     1   --> A'             
     e( 10 - 10) =    -35.91037  eV     1   --> A''            
     e( 11 - 11) =    -35.90812  eV     1   --> A'             
     e( 12 - 12) =    -35.90727  eV     1   --> A'             
     e( 13 - 13) =    -14.73050  eV     1   --> A'             
     e( 14 - 14) =    -14.72776  eV     1   --> A''            
     e( 15 - 15) =    -14.72616  eV     1   --> A'             
     e( 16 - 16) =    -14.72381  eV     1   --> A''            
     e( 17 - 17) =    -14.71588  eV     1   --> A'             
     e( 18 - 18) =    -14.71475  eV     1   --> A'             
     e( 19 - 19) =    -14.69678  eV     1   --> A'             
     e( 20 - 20) =    -14.69597  eV     1   --> A''            
     e( 21 - 21) =    -14.68984  eV     1   --> A'             
     e( 22 - 22) =    -14.68652  eV     1   --> A''            
     e( 23 - 23) =     -3.66792  eV     1   --> A'             
     e( 24 - 24) =     -2.96798  eV     1   --> A'             
     e( 25 - 25) =      3.14739  eV     1   --> A'             
     e( 26 - 26) =      4.09234  eV     1   --> A'             
     e( 27 - 27) =      4.80283  eV     1   --> A'             
     e( 28 - 28) =      5.68972  eV     1   --> A''            
     e( 29 - 29) =      6.80721  eV     1   --> A'             
     e( 30 - 30) =      6.99703  eV     1   --> A''            
     e( 31 - 31) =      8.41161  eV     1   --> A'             
     e( 32 - 32) =      9.13033  eV     1   --> A'             
     e( 33 - 33) =     10.11523  eV     1   --> A'             
     e( 34 - 34) =     10.58413  eV     1   --> A''            
     e( 35 - 35) =     11.00044  eV     1   --> A'             
     e( 36 - 36) =     11.34562  eV     1   --> A'             

 **************************************************************************

 **************************************************************************

                    xk=(  -0.25000,   0.14434,  -0.12658  )

     Band symmetry, C_s (m)     point group:

     e(  1 -  1) =    -69.75924  eV     1   --> A'             
     e(  2 -  2) =    -69.16034  eV     1   --> A'             
     e(  3 -  3) =    -69.15971  eV     1   --> A'             
     e(  4 -  4) =    -36.51064  eV     1   --> A'             
     e(  5 -  5) =    -36.50714  eV     1   --> A''            
     e(  6 -  6) =    -36.50684  eV     1   --> A'             
     e(  7 -  7) =    -35.91393  eV     1   --> A''            
     e(  8 -  8) =    -35.91328  eV     1   --> A'             
     e(  9 -  9) =    -35.91181  eV     1   --> A'             
     e( 10 - 10) =    -35.90987  eV     1   --> A''            
     e( 11 - 11) =    -35.90846  eV     1   --> A'             
     e( 12 - 12) =    -35.90727  eV     1   --> A'             
     e( 13 - 13) =    -14.73098  eV     1   --> A'             
     e( 14 - 14) =    -14.72675  eV     1   --> A''            
     e( 15 - 15) =    -14.72573  eV     1   --> A'             
     e( 16 - 16) =    -14.72469  eV     1   --> A''            
     e( 17 - 17) =    -14.71605  eV     1   --> A'             
     e( 18 - 18) =    -14.71449  eV     1   --> A'             
     e( 19 - 19) =    -14.69648  eV     1   --> A'             
     e( 20 - 20) =    -14.69607  eV     1   --> A''            
     e( 21 - 21) =    -14.69013  eV     1   --> A'             
     e( 22 - 22) =    -14.68646  eV     1   --> A''            
     e( 23 - 23) =     -3.61749  eV     1   --> A'             
     e( 24 - 24) =     -3.03809  eV     1   --> A'             
     e( 25 - 25) =      3.18666  eV     1   --> A'             
     e( 26 - 26) =      4.26842  eV     1   --> A'             
     e( 27 - 27) =      4.72518  eV     1   --> A'             
     e( 28 - 28) =      5.79029  eV     1   --> A''            
     e( 29 - 29) =      6.76697  eV     1   --> A'             
     e( 30 - 30) =      6.78075  eV     1   --> A''            
     e( 31 - 31) =      7.97401  eV     1   --> A'             
     e( 32 - 32) =      9.08390  eV     1   --> A'             
     e( 33 - 33) =     10.57031  eV     1   --> A'             
     e( 34 - 34) =     10.95009  eV     1   --> A'             
     e( 35 - 35) =     11.14145  eV     1   --> A''            
     e( 36 - 36) =     11.48930  eV     1   --> A'             

 **************************************************************************

 **************************************************************************

                    xk=(  -0.25000,   0.14434,  -0.25316  )

     Band symmetry, C_s (m)     point group:

     e(  1 -  1) =    -69.75923  eV     1   --> A'             
     e(  2 -  2) =    -69.16033  eV     1   --> A'             
     e(  3 -  3) =    -69.15970  eV     1   --> A'             
     e(  4 -  4) =    -36.51077  eV     1   --> A'             
     e(  5 -  5) =    -36.50677  eV     1   --> A''            
     e(  6 -  6) =    -36.50644  eV     1   --> A'             
     e(  7 -  7) =    -35.91335  eV     1   --> A''            
     e(  8 -  8) =    -35.91265  eV     1   --> A'             
     e(  9 -  9) =    -35.91180  eV     1   --> A'             
     e( 10 - 10) =    -35.90970  eV     1   --> A''            
     e( 11 - 11) =    -35.90875  eV     1   --> A'             
     e( 12 - 12) =    -35.90707  eV     1   --> A'             
     e( 13 - 13) =    -14.73078  eV     1   --> A'             
     e( 14 - 14) =    -14.72650  eV     1   --> A''            
     e( 15 - 15) =    -14.72608  eV     1   --> A'             
     e( 16 - 16) =    -14.72478  eV     1   --> A''            
     e( 17 - 17) =    -14.71626  eV     1   --> A'             
     e( 18 - 18) =    -14.71409  eV     1   --> A'             
     e( 19 - 19) =    -14.69656  eV     1   --> A'             
     e( 20 - 20) =    -14.69595  eV     1   --> A''            
     e( 21 - 21) =    -14.68994  eV     1   --> A'             
     e( 22 - 22) =    -14.68667  eV     1   --> A''            
     e( 23 - 23) =     -3.49167  eV     1   --> A'             
     e( 24 - 24) =     -3.19605  eV     1   --> A'             
     e( 25 - 25) =      3.41419  eV     1   --> A'             
     e( 26 - 26) =      4.01222  eV     1   --> A'             
     e( 27 - 27) =      5.21037  eV     1   --> A'             
     e( 28 - 28) =      6.02987  eV     1   --> A''            
     e( 29 - 29) =      6.11976  eV     1   --> A'             
     e( 30 - 30) =      6.41657  eV     1   --> A''            
     e( 31 - 31) =      7.98389  eV     1   --> A'             
     e( 32 - 32) =      9.28600  eV     1   --> A'             
     e( 33 - 33) =     10.31976  eV     1   --> A'             
     e( 34 - 34) =     11.12731  eV     1   --> A'             
     e( 35 - 35) =     11.56190  eV     1   --> A''            
     e( 36 - 36) =     11.71694  eV     1   --> A'             

 **************************************************************************

 **************************************************************************

                    xk=(  -0.37500,   0.21651,   0.00000  )

     Band symmetry, C_s (m)     point group:

     e(  1 -  1) =    -69.75917  eV     1   --> A'             
     e(  2 -  2) =    -69.16016  eV     1   --> A'             
     e(  3 -  3) =    -69.15974  eV     1   --> A'             
     e(  4 -  4) =    -36.50981  eV     1   --> A'             
     e(  5 -  5) =    -36.50665  eV     1   --> A''            
     e(  6 -  6) =    -36.50552  eV     1   --> A'             
     e(  7 -  7) =    -35.91373  eV     1   --> A''            
     e(  8 -  8) =    -35.91188  eV     1   --> A'             
     e(  9 -  9) =    -35.91083  eV     1   --> A'             
     e( 10 - 10) =    -35.90908  eV     1   --> A''            
     e( 11 - 11) =    -35.90716  eV     1   --> A'             
     e( 12 - 12) =    -35.90672  eV     1   --> A'             
     e( 13 - 13) =    -14.73215  eV     1   --> A'             
     e( 14 - 14) =    -14.72764  eV     1   --> A''            
     e( 15 - 15) =    -14.72609  eV     1   --> A'             
     e( 16 - 16) =    -14.72203  eV     1   --> A''            
     e( 17 - 17) =    -14.71508  eV     1   --> A'             
     e( 18 - 18) =    -14.71339  eV     1   --> A'             
     e( 19 - 19) =    -14.69523  eV     1   --> A'             
     e( 20 - 20) =    -14.69430  eV     1   --> A''            
     e( 21 - 21) =    -14.69131  eV     1   --> A'             
     e( 22 - 22) =    -14.68525  eV     1   --> A''            
     e( 23 - 23) =     -3.38430  eV     1   --> A'             
     e( 24 - 24) =     -2.91676  eV     1   --> A'             
     e( 25 - 25) =      3.16364  eV     1   --> A'             
     e( 26 - 26) =      3.76579  eV     1   --> A'             
     e( 27 - 27) =      4.04255  eV     1   --> A'             
     e( 28 - 28) =      5.35351  eV     1   --> A''            
     e( 29 - 29) =      5.93334  eV     1   --> A'             
     e( 30 - 30) =      6.77996  eV     1   --> A''            
     e( 31 - 31) =      7.86622  eV     1   --> A'             
     e( 32 - 32) =      9.05188  eV     1   --> A'             
     e( 33 - 33) =      9.74901  eV     1   --> A'             
     e( 34 - 34) =     10.29750  eV     1   --> A''            
     e( 35 - 35) =     11.55125  eV     1   --> A'             
     e( 36 - 36) =     12.17912  eV     1   --> A'             

 **************************************************************************

 **************************************************************************

                    xk=(  -0.37500,   0.21651,  -0.12658  )

     Band symmetry, C_s (m)     point group:

     e(  1 -  1) =    -69.75921  eV     1   --> A'             
     e(  2 -  2) =    -69.16017  eV     1   --> A'             
     e(  3 -  3) =    -69.15982  eV     1   --> A'             
     e(  4 -  4) =    -36.51078  eV     1   --> A'             
     e(  5 -  5) =    -36.50670  eV     1   --> A''            
     e(  6 -  6) =    -36.50623  eV     1   --> A'             
     e(  7 -  7) =    -35.91395  eV     1   --> A''            
     e(  8 -  8) =    -35.91330  eV     1   --> A'             
     e(  9 -  9) =    -35.91169  eV     1   --> A'             
     e( 10 - 10) =    -35.90898  eV     1   --> A''            
     e( 11 - 11) =    -35.90821  eV     1   --> A'             
     e( 12 - 12) =    -35.90671  eV     1   --> A'             
     e( 13 - 13) =    -14.73227  eV     1   --> A'             
     e( 14 - 14) =    -14.72684  eV     1   --> A''            
     e( 15 - 15) =    -14.72621  eV     1   --> A'             
     e( 16 - 16) =    -14.72277  eV     1   --> A''            
     e( 17 - 17) =    -14.71536  eV     1   --> A'             
     e( 18 - 18) =    -14.71299  eV     1   --> A'             
     e( 19 - 19) =    -14.69476  eV     1   --> A'             
     e( 20 - 20) =    -14.69432  eV     1   --> A''            
     e( 21 - 21) =    -14.69181  eV     1   --> A'             
     e( 22 - 22) =    -14.68530  eV     1   --> A''            
     e( 23 - 23) =     -3.34816  eV     1   --> A'             
     e( 24 - 24) =     -2.95735  eV     1   --> A'             
     e( 25 - 25) =      2.94017  eV     1   --> A'             
     e( 26 - 26) =      3.70433  eV     1   --> A'             
     e( 27 - 27) =      4.43853  eV     1   --> A'             
     e( 28 - 28) =      5.44892  eV     1   --> A''            
     e( 29 - 29) =      6.18439  eV     1   --> A'             
     e( 30 - 30) =      6.55903  eV     1   --> A''            
     e( 31 - 31) =      7.57213  eV     1   --> A'             
     e( 32 - 32) =      8.68042  eV     1   --> A'             
     e( 33 - 33) =     10.48451  eV     1   --> A'             
     e( 34 - 34) =     10.73794  eV     1   --> A'             
     e( 35 - 35) =     10.75453  eV     1   --> A''            
     e( 36 - 36) =     12.01522  eV     1   --> A'             

 **************************************************************************

 **************************************************************************

                    xk=(  -0.37500,   0.21651,  -0.25316  )

     Band symmetry, C_s (m)     point group:

     e(  1 -  1) =    -69.75921  eV     1   --> A'             
     e(  2 -  2) =    -69.16018  eV     1   --> A'             
     e(  3 -  3) =    -69.15981  eV     1   --> A'             
     e(  4 -  4) =    -36.51056  eV     1   --> A'             
     e(  5 -  5) =    -36.50675  eV     1   --> A''            
     e(  6 -  6) =    -36.50625  eV     1   --> A'             
     e(  7 -  7) =    -35.91392  eV     1   --> A''            
     e(  8 -  8) =    -35.91307  eV     1   --> A'             
     e(  9 -  9) =    -35.91158  eV     1   --> A'             
     e( 10 - 10) =    -35.90910  eV     1   --> A''            
     e( 11 - 11) =    -35.90781  eV     1   --> A'             
     e( 12 - 12) =    -35.90705  eV     1   --> A'             
     e( 13 - 13) =    -14.73188  eV     1   --> A'             
     e( 14 - 14) =    -14.72700  eV     1   --> A'             
     e( 15 - 15) =    -14.72586  eV     1   --> A''            
     e( 16 - 16) =    -14.72355  eV     1   --> A''            
     e( 17 - 17) =    -14.71570  eV     1   --> A'             
     e( 18 - 18) =    -14.71242  eV     1   --> A'             
     e( 19 - 19) =    -14.69475  eV     1   --> A'             
     e( 20 - 20) =    -14.69411  eV     1   --> A''            
     e( 21 - 21) =    -14.69162  eV     1   --> A'             
     e( 22 - 22) =    -14.68565  eV     1   --> A''            
     e( 23 - 23) =     -3.25655  eV     1   --> A'             
     e( 24 - 24) =     -3.05746  eV     1   --> A'             
     e( 25 - 25) =      2.87032  eV     1   --> A'             
     e( 26 - 26) =      3.37225  eV     1   --> A'             
     e( 27 - 27) =      5.25515  eV     1   --> A'             
     e( 28 - 28) =      5.69097  eV     1   --> A''            
     e( 29 - 29) =      6.16236  eV     1   --> A''            
     e( 30 - 30) =      6.16955  eV     1   --> A'             
     e( 31 - 31) =      7.43092  eV     1   --> A'             
     e( 32 - 32) =      8.88847  eV     1   --> A'             
     e( 33 - 33) =      9.80370  eV     1   --> A'             
     e( 34 - 34) =     10.05159  eV     1   --> A'             
     e( 35 - 35) =     11.68621  eV     1   --> A''            
     e( 36 - 36) =     12.32885  eV     1   --> A'             

 **************************************************************************

 **************************************************************************

                    xk=(   0.50000,  -0.28868,   0.00000  )

     point group C_2h (2/m) 
     there are  4 classes
     the character table:

       E     C2    i     s_h  
A_g    1.00  1.00  1.00  1.00
B_g    1.00 -1.00  1.00 -1.00
A_u    1.00  1.00 -1.00 -1.00
B_u    1.00 -1.00 -1.00  1.00

     the symmetry operations in each class and the name of the first element:

     E        1
                                                                 
     C2       2
                                                                 
     i        3
                                                                 
     s_h      4
                                                                 

     Band symmetry, C_2h (2/m)  point group:

     e(  1 -  1) =    -69.75917  eV     1   --> A_g            
     e(  2 -  2) =    -69.16009  eV     1   --> B_u            
     e(  3 -  3) =    -69.15981  eV     1   --> A_g            
     e(  4 -  4) =    -36.50974  eV     1   --> B_u            
     e(  5 -  5) =    -36.50653  eV     1   --> A_u            
     e(  6 -  6) =    -36.50582  eV     1   --> B_u            
     e(  7 -  7) =    -35.91335  eV     1   --> A_u            
     e(  8 -  8) =    -35.91247  eV     1   --> A_g            
     e(  9 -  9) =    -35.91145  eV     1   --> B_u            
     e( 10 - 10) =    -35.90924  eV     1   --> B_g            
     e( 11 - 11) =    -35.90668  eV     1   --> B_u            
     e( 12 - 12) =    -35.90647  eV     1   --> A_g            
     e( 13 - 13) =    -14.73284  eV     1   --> A_g            
     e( 14 - 14) =    -14.72759  eV     1   --> A_u            
     e( 15 - 15) =    -14.72616  eV     1   --> B_u            
     e( 16 - 16) =    -14.72136  eV     1   --> B_g            
     e( 17 - 17) =    -14.71487  eV     1   --> A_g            
     e( 18 - 18) =    -14.71277  eV     1   --> B_u            
     e( 19 - 19) =    -14.69407  eV     1   --> A_g            
     e( 20 - 20) =    -14.69361  eV     1   --> A_u            
     e( 21 - 21) =    -14.69245  eV     1   --> B_u            
     e( 22 - 22) =    -14.68469  eV     1   --> B_g            
     e( 23 - 23) =     -3.21744  eV     1   --> B_u            
     e( 24 - 24) =     -2.93457  eV     1   --> A_g            
     e( 25 - 25) =      2.84809  eV     1   --> A_g            
     e( 26 - 26) =      3.73849  eV     1   --> B_u            
     e( 27 - 27) =      4.26747  eV     1   --> B_u            
     e( 28 - 28) =      5.23479  eV     1   --> A_u            
     e( 29 - 29) =      5.31162  eV     1   --> A_g            
     e( 30 - 30) =      6.69107  eV     1   --> B_g            
     e( 31 - 31) =      7.68906  eV     1   --> A_g            
     e( 32 - 32) =      8.97874  eV     1   --> B_u            
     e( 33 - 33) =      9.61265  eV     1   --> A_g            
     e( 34 - 34) =     10.19119  eV     1   --> A_u            
     e( 35 - 35) =     12.24261  eV     1   --> B_u            
     e( 36 - 36) =     12.27899  eV     1   --> A_g            

 **************************************************************************

 **************************************************************************

                    xk=(   0.50000,  -0.28868,  -0.12658  )

     point group C_s (m)    
     there are  2 classes
     the character table:

       E     s    
A'     1.00  1.00
A''    1.00 -1.00

     the symmetry operations in each class and the name of the first element:

     E        1
                                                                 
     s        2
                                                                 

     Band symmetry, C_s (m)     point group:

     e(  1 -  1) =    -69.75916  eV     1   --> A'             
     e(  2 -  2) =    -69.16006  eV     1   --> A'             
     e(  3 -  3) =    -69.15983  eV     1   --> A'             
     e(  4 -  4) =    -36.51016  eV     1   --> A'             
     e(  5 -  5) =    -36.50641  eV     1   --> A''            
     e(  6 -  6) =    -36.50518  eV     1   --> A'             
     e(  7 -  7) =    -35.91363  eV     1   --> A''            
     e(  8 -  8) =    -35.91153  eV     1   --> A'             
     e(  9 -  9) =    -35.91131  eV     1   --> A'             
     e( 10 - 10) =    -35.90874  eV     1   --> A''            
     e( 11 - 11) =    -35.90718  eV     1   --> A'             
     e( 12 - 12) =    -35.90661  eV     1   --> A'             
     e( 13 - 13) =    -14.73258  eV     1   --> A'             
     e( 14 - 14) =    -14.72707  eV     1   --> A''            
     e( 15 - 15) =    -14.72664  eV     1   --> A'             
     e( 16 - 16) =    -14.72179  eV     1   --> A''            
     e( 17 - 17) =    -14.71519  eV     1   --> A'             
     e( 18 - 18) =    -14.71229  eV     1   --> A'             
     e( 19 - 19) =    -14.69389  eV     1   --> A'             
     e( 20 - 20) =    -14.69347  eV     1   --> A''            
     e( 21 - 21) =    -14.69247  eV     1   --> A'             
     e( 22 - 22) =    -14.68494  eV     1   --> A''            
     e( 23 - 23) =     -3.19130  eV     1   --> A'             
     e( 24 - 24) =     -2.95794  eV     1   --> A'             
     e( 25 - 25) =      2.73594  eV     1   --> A'             
     e( 26 - 26) =      3.45162  eV     1   --> A'             
     e( 27 - 27) =      4.60425  eV     1   --> A'             
     e( 28 - 28) =      5.32401  eV     1   --> A''            
     e( 29 - 29) =      5.79930  eV     1   --> A'             
     e( 30 - 30) =      6.48162  eV     1   --> A''            
     e( 31 - 31) =      7.58595  eV     1   --> A'             
     e( 32 - 32) =      8.51753  eV     1   --> A'             
     e( 33 - 33) =     10.12503  eV     1   --> A'             
     e( 34 - 34) =     10.58426  eV     1   --> A''            
     e( 35 - 35) =     11.09724  eV     1   --> A'             
     e( 36 - 36) =     11.28542  eV     1   --> A'             

 **************************************************************************

 **************************************************************************

                    xk=(   0.50000,  -0.28868,  -0.25316  )

     Band symmetry, C_s (m)     point group:

     e(  1 -  1) =    -69.75918  eV     1   --> A'             
     e(  2 -  2) =    -69.16007  eV     1   --> A'             
     e(  3 -  3) =    -69.15986  eV     1   --> A'             
     e(  4 -  4) =    -36.51100  eV     1   --> A'             
     e(  5 -  5) =    -36.50626  eV     1   --> A''            
     e(  6 -  6) =    -36.50550  eV     1   --> A'             
     e(  7 -  7) =    -35.91361  eV     1   --> A''            
     e(  8 -  8) =    -35.91223  eV     1   --> A'             
     e(  9 -  9) =    -35.91188  eV     1   --> A'             
     e( 10 - 10) =    -35.90845  eV     1   --> A''            
     e( 11 - 11) =    -35.90774  eV     1   --> A'             
     e( 12 - 12) =    -35.90704  eV     1   --> A'             
     e( 13 - 13) =    -14.73210  eV     1   --> A'             
     e( 14 - 14) =    -14.72762  eV     1   --> A'             
     e( 15 - 15) =    -14.72596  eV     1   --> A''            
     e( 16 - 16) =    -14.72273  eV     1   --> A''            
     e( 17 - 17) =    -14.71559  eV     1   --> A'             
     e( 18 - 18) =    -14.71166  eV     1   --> A'             
     e( 19 - 19) =    -14.69341  eV     1   --> A'             
     e( 20 - 20) =    -14.69322  eV     1   --> A''            
     e( 21 - 21) =    -14.69283  eV     1   --> A'             
     e( 22 - 22) =    -14.68530  eV     1   --> A''            
     e( 23 - 23) =     -3.12854  eV     1   --> A'             
     e( 24 - 24) =     -3.01637  eV     1   --> A'             
     e( 25 - 25) =      2.63652  eV     1   --> A'             
     e( 26 - 26) =      3.08775  eV     1   --> A'             
     e( 27 - 27) =      5.35060  eV     1   --> A'             
     e( 28 - 28) =      5.56392  eV     1   --> A''            
     e( 29 - 29) =      6.07635  eV     1   --> A''            
     e( 30 - 30) =      6.17228  eV     1   --> A'             
     e( 31 - 31) =      7.54911  eV     1   --> A'             
     e( 32 - 32) =      8.56123  eV     1   --> A'             
     e( 33 - 33) =      9.22263  eV     1   --> A'             
     e( 34 - 34) =      9.89837  eV     1   --> A'             
     e( 35 - 35) =     11.50585  eV     1   --> A''            
     e( 36 - 36) =     12.14249  eV     1   --> A'             

 **************************************************************************

 **************************************************************************

                    xk=(  -0.25000,   0.00000,   0.00000  )

     point group C_2  (2)   
     there are  2 classes
     the character table:

       E     C2   
A      1.00  1.00
B      1.00 -1.00

     the symmetry operations in each class and the name of the first element:

     E        1
                                                                 
     C2       2
                                                                 

     Band symmetry, C_2  (2)    point group:

     e(  1 -  1) =    -69.75925  eV     1   --> A              
     e(  2 -  2) =    -69.16038  eV     1   --> A              
     e(  3 -  3) =    -69.15968  eV     1   --> B              
     e(  4 -  4) =    -36.51037  eV     1   --> B              
     e(  5 -  5) =    -36.50741  eV     1   --> B              
     e(  6 -  6) =    -36.50718  eV     1   --> A              
     e(  7 -  7) =    -35.91411  eV     1   --> A              
     e(  8 -  8) =    -35.91380  eV     1   --> B              
     e(  9 -  9) =    -35.91151  eV     1   --> A              
     e( 10 - 10) =    -35.91024  eV     1   --> B              
     e( 11 - 11) =    -35.90837  eV     1   --> A              
     e( 12 - 12) =    -35.90725  eV     1   --> B              
     e( 13 - 13) =    -14.72963  eV     1   --> A              
     e( 14 - 14) =    -14.72834  eV     1   --> B              
     e( 15 - 15) =    -14.72566  eV     1   --> A              
     e( 16 - 16) =    -14.72466  eV     1   --> B              
     e( 17 - 17) =    -14.71612  eV     1   --> B              
     e( 18 - 18) =    -14.71514  eV     1   --> A              
     e( 19 - 19) =    -14.69701  eV     1   --> B              
     e( 20 - 20) =    -14.69660  eV     1   --> A              
     e( 21 - 21) =    -14.68931  eV     1   --> A              
     e( 22 - 22) =    -14.68698  eV     1   --> B              
     e( 23 - 23) =     -3.73711  eV     1   --> A              
     e( 24 - 24) =     -2.99078  eV     1   --> B              
     e( 25 - 25) =      3.02257  eV     1   --> A              
     e( 26 - 26) =      4.69924  eV     1   --> A              
     e( 27 - 27) =      4.70168  eV     1   --> B              
     e( 28 - 28) =      5.93894  eV     1   --> A              
     e( 29 - 29) =      6.74887  eV     1   --> B              
     e( 30 - 30) =      7.01028  eV     1   --> B              
     e( 31 - 31) =      9.22612  eV     1   --> A              
     e( 32 - 32) =      9.53570  eV     1   --> A              
     e( 33 - 33) =      9.53939  eV     1   --> B              
     e( 34 - 34) =     10.38300  eV     1   --> A              
     e( 35 - 35) =     10.44816  eV     1   --> B              
     e( 36 - 36) =     11.54279  eV     1   -->   ?

 **************************************************************************

 **************************************************************************

                    xk=(  -0.25000,   0.00000,  -0.12658  )

     point group C_1 (1)    
     there are  1 classes
     the character table:

       E    
A      1.00

     the symmetry operations in each class and the name of the first element:

     E        1
                                                                 

     Band symmetry, C_1 (1)     point group:

     e(  1 -  1) =    -69.75926  eV     1   --> A              
     e(  2 -  2) =    -69.16038  eV     1   --> A              
     e(  3 -  3) =    -69.15970  eV     1   --> A              
     e(  4 -  4) =    -36.51073  eV     1   --> A              
     e(  5 -  5) =    -36.50732  eV     1   --> A              
     e(  6 -  6) =    -36.50700  eV     1   --> A              
     e(  7 -  7) =    -35.91401  eV     1   --> A              
     e(  8 -  8) =    -35.91361  eV     1   --> A              
     e(  9 -  9) =    -35.91157  eV     1   --> A              
     e( 10 - 10) =    -35.91006  eV     1   --> A              
     e( 11 - 11) =    -35.90891  eV     1   --> A              
     e( 12 - 12) =    -35.90729  eV     1   --> A              
     e( 13 - 13) =    -14.72985  eV     1   --> A              
     e( 14 - 14) =    -14.72782  eV     1   --> A              
     e( 15 - 15) =    -14.72605  eV     1   --> A              
     e( 16 - 16) =    -14.72453  eV     1   --> A              
     e( 17 - 17) =    -14.71629  eV     1   --> A              
     e( 18 - 18) =    -14.71490  eV     1   --> A              
     e( 19 - 19) =    -14.69707  eV     1   --> A              
     e( 20 - 20) =    -14.69648  eV     1   --> A              
     e( 21 - 21) =    -14.68930  eV     1   --> A              
     e( 22 - 22) =    -14.68706  eV     1   --> A              
     e( 23 - 23) =     -3.68367  eV     1   --> A              
     e( 24 - 24) =     -3.06822  eV     1   --> A              
     e( 25 - 25) =      3.18500  eV     1   --> A              
     e( 26 - 26) =      4.55934  eV     1   --> A              
     e( 27 - 27) =      4.88618  eV     1   --> A              
     e( 28 - 28) =      5.81379  eV     1   --> A              
     e( 29 - 29) =      6.58586  eV     1   --> A              
     e( 30 - 30) =      6.96091  eV     1   --> A              
     e( 31 - 31) =      8.88438  eV     1   --> A              
     e( 32 - 32) =      9.58573  eV     1   --> A              
     e( 33 - 33) =      9.78976  eV     1   --> A              
     e( 34 - 34) =     10.42303  eV     1   --> A              
     e( 35 - 35) =     10.70458  eV     1   --> A              
     e( 36 - 36) =     11.30627  eV     1   --> A              

 **************************************************************************

 **************************************************************************

                    xk=(  -0.25000,   0.00000,  -0.25316  )

     Band symmetry, C_1 (1)     point group:

     e(  1 -  1) =    -69.75926  eV     1   --> A              
     e(  2 -  2) =    -69.16037  eV     1   --> A              
     e(  3 -  3) =    -69.15972  eV     1   --> A              
     e(  4 -  4) =    -36.51099  eV     1   --> A              
     e(  5 -  5) =    -36.50709  eV     1   --> A              
     e(  6 -  6) =    -36.50682  eV     1   --> A              
     e(  7 -  7) =    -35.91404  eV     1   --> A              
     e(  8 -  8) =    -35.91345  eV     1   --> A              
     e(  9 -  9) =    -35.91191  eV     1   --> A              
     e( 10 - 10) =    -35.90935  eV     1   --> A              
     e( 11 - 11) =    -35.90910  eV     1   --> A              
     e( 12 - 12) =    -35.90730  eV     1   --> A              
     e( 13 - 13) =    -14.72998  eV     1   --> A              
     e( 14 - 14) =    -14.72769  eV     1   --> A              
     e( 15 - 15) =    -14.72577  eV     1   --> A              
     e( 16 - 16) =    -14.72475  eV     1   --> A              
     e( 17 - 17) =    -14.71645  eV     1   --> A              
     e( 18 - 18) =    -14.71458  eV     1   --> A              
     e( 19 - 19) =    -14.69702  eV     1   --> A              
     e( 20 - 20) =    -14.69645  eV     1   --> A              
     e( 21 - 21) =    -14.68927  eV     1   --> A              
     e( 22 - 22) =    -14.68721  eV     1   --> A              
     e( 23 - 23) =     -3.55141  eV     1   --> A              
     e( 24 - 24) =     -3.23820  eV     1   --> A              
     e( 25 - 25) =      3.59340  eV     1   --> A              
     e( 26 - 26) =      4.14282  eV     1   --> A              
     e( 27 - 27) =      5.41682  eV     1   --> A              
     e( 28 - 28) =      5.80553  eV     1   --> A              
     e( 29 - 29) =      6.26650  eV     1   --> A              
     e( 30 - 30) =      6.34958  eV     1   --> A              
     e( 31 - 31) =      8.92306  eV     1   --> A              
     e( 32 - 32) =      9.77888  eV     1   --> A              
     e( 33 - 33) =     10.01047  eV     1   --> A              
     e( 34 - 34) =     10.30188  eV     1   --> A              
     e( 35 - 35) =     10.80330  eV     1   --> A              
     e( 36 - 36) =     11.59726  eV     1   --> A              

 **************************************************************************

 **************************************************************************

                    xk=(  -0.37500,   0.07217,   0.00000  )

     Band symmetry, C_1 (1)     point group:

     e(  1 -  1) =    -69.75921  eV     1   --> A              
     e(  2 -  2) =    -69.16026  eV     1   --> A              
     e(  3 -  3) =    -69.15974  eV     1   --> A              
     e(  4 -  4) =    -36.51028  eV     1   --> A              
     e(  5 -  5) =    -36.50708  eV     1   --> A              
     e(  6 -  6) =    -36.50625  eV     1   --> A              
     e(  7 -  7) =    -35.91397  eV     1   --> A              
     e(  8 -  8) =    -35.91296  eV     1   --> A              
     e(  9 -  9) =    -35.91159  eV     1   --> A              
     e( 10 - 10) =    -35.90937  eV     1   --> A              
     e( 11 - 11) =    -35.90762  eV     1   --> A              
     e( 12 - 12) =    -35.90716  eV     1   --> A              
     e( 13 - 13) =    -14.73112  eV     1   --> A              
     e( 14 - 14) =    -14.72822  eV     1   --> A              
     e( 15 - 15) =    -14.72560  eV     1   --> A              
     e( 16 - 16) =    -14.72292  eV     1   --> A              
     e( 17 - 17) =    -14.71505  eV     1   --> A              
     e( 18 - 18) =    -14.71397  eV     1   --> A              
     e( 19 - 19) =    -14.69578  eV     1   --> A              
     e( 20 - 20) =    -14.69515  eV     1   --> A              
     e( 21 - 21) =    -14.69027  eV     1   --> A              
     e( 22 - 22) =    -14.68603  eV     1   --> A              
     e( 23 - 23) =     -3.48097  eV     1   --> A              
     e( 24 - 24) =     -2.92235  eV     1   --> A              
     e( 25 - 25) =      3.47848  eV     1   --> A              
     e( 26 - 26) =      3.67430  eV     1   --> A              
     e( 27 - 27) =      4.15201  eV     1   --> A              
     e( 28 - 28) =      5.24256  eV     1   --> A              
     e( 29 - 29) =      6.32158  eV     1   --> A              
     e( 30 - 30) =      6.34029  eV     1   --> A              
     e( 31 - 31) =      8.60878  eV     1   --> A              
     e( 32 - 32) =      9.49229  eV     1   --> A              
     e( 33 - 33) =      9.89397  eV     1   --> A              
     e( 34 - 34) =     10.55995  eV     1   --> A              
     e( 35 - 35) =     11.22773  eV     1   --> A              
     e( 36 - 36) =     11.55413  eV     1   --> A              

 **************************************************************************

 **************************************************************************

                    xk=(  -0.37500,   0.07217,  -0.12658  )

     Band symmetry, C_1 (1)     point group:

     e(  1 -  1) =    -69.75920  eV     1   --> A              
     e(  2 -  2) =    -69.16021  eV     1   --> A              
     e(  3 -  3) =    -69.15974  eV     1   --> A              
     e(  4 -  4) =    -36.51026  eV     1   --> A              
     e(  5 -  5) =    -36.50701  eV     1   --> A              
     e(  6 -  6) =    -36.50562  eV     1   --> A              
     e(  7 -  7) =    -35.91381  eV     1   --> A              
     e(  8 -  8) =    -35.91277  eV     1   --> A              
     e(  9 -  9) =    -35.91112  eV     1   --> A              
     e( 10 - 10) =    -35.90944  eV     1   --> A              
     e( 11 - 11) =    -35.90742  eV     1   --> A              
     e( 12 - 12) =    -35.90665  eV     1   --> A              
     e( 13 - 13) =    -14.73127  eV     1   --> A              
     e( 14 - 14) =    -14.72758  eV     1   --> A              
     e( 15 - 15) =    -14.72551  eV     1   --> A              
     e( 16 - 16) =    -14.72355  eV     1   --> A              
     e( 17 - 17) =    -14.71522  eV     1   --> A              
     e( 18 - 18) =    -14.71369  eV     1   --> A              
     e( 19 - 19) =    -14.69544  eV     1   --> A              
     e( 20 - 20) =    -14.69516  eV     1   --> A              
     e( 21 - 21) =    -14.69052  eV     1   --> A              
     e( 22 - 22) =    -14.68608  eV     1   --> A              
     e( 23 - 23) =     -3.43850  eV     1   --> A              
     e( 24 - 24) =     -2.97483  eV     1   --> A              
     e( 25 - 25) =      3.21550  eV     1   --> A              
     e( 26 - 26) =      3.82890  eV     1   --> A              
     e( 27 - 27) =      4.48418  eV     1   --> A              
     e( 28 - 28) =      5.14845  eV     1   --> A              
     e( 29 - 29) =      6.07746  eV     1   --> A              
     e( 30 - 30) =      6.61692  eV     1   --> A              
     e( 31 - 31) =      8.33192  eV     1   --> A              
     e( 32 - 32) =      9.49739  eV     1   --> A              
     e( 33 - 33) =      9.89651  eV     1   --> A              
     e( 34 - 34) =     10.89521  eV     1   --> A              
     e( 35 - 35) =     11.04157  eV     1   --> A              
     e( 36 - 36) =     11.56648  eV     1   --> A              

 **************************************************************************

 **************************************************************************

                    xk=(  -0.37500,   0.07217,  -0.25316  )

     Band symmetry, C_1 (1)     point group:

     e(  1 -  1) =    -69.75920  eV     1   --> A              
     e(  2 -  2) =    -69.16022  eV     1   --> A              
     e(  3 -  3) =    -69.15975  eV     1   --> A              
     e(  4 -  4) =    -36.51056  eV     1   --> A              
     e(  5 -  5) =    -36.50697  eV     1   --> A              
     e(  6 -  6) =    -36.50567  eV     1   --> A              
     e(  7 -  7) =    -35.91382  eV     1   --> A              
     e(  8 -  8) =    -35.91253  eV     1   --> A              
     e(  9 -  9) =    -35.91146  eV     1   --> A              
     e( 10 - 10) =    -35.90935  eV     1   --> A              
     e( 11 - 11) =    -35.90772  eV     1   --> A              
     e( 12 - 12) =    -35.90693  eV     1   --> A              
     e( 13 - 13) =    -14.73098  eV     1   --> A              
     e( 14 - 14) =    -14.72729  eV     1   --> A              
     e( 15 - 15) =    -14.72545  eV     1   --> A              
     e( 16 - 16) =    -14.72439  eV     1   --> A              
     e( 17 - 17) =    -14.71541  eV     1   --> A              
     e( 18 - 18) =    -14.71328  eV     1   --> A              
     e( 19 - 19) =    -14.69526  eV     1   --> A              
     e( 20 - 20) =    -14.69510  eV     1   --> A              
     e( 21 - 21) =    -14.69041  eV     1   --> A              
     e( 22 - 22) =    -14.68641  eV     1   --> A              
     e( 23 - 23) =     -3.33307  eV     1   --> A              
     e( 24 - 24) =     -3.09708  eV     1   --> A              
     e( 25 - 25) =      3.19418  eV     1   --> A              
     e( 26 - 26) =      3.58531  eV     1   --> A              
     e( 27 - 27) =      5.06687  eV     1   --> A              
     e( 28 - 28) =      5.46442  eV     1   --> A              
     e( 29 - 29) =      5.69154  eV     1   --> A              
     e( 30 - 30) =      6.42123  eV     1   --> A              
     e( 31 - 31) =      8.27826  eV     1   --> A              
     e( 32 - 32) =      9.76620  eV     1   --> A              
     e( 33 - 33) =      9.97711  eV     1   --> A              
     e( 34 - 34) =     10.68256  eV     1   --> A              
     e( 35 - 35) =     10.99272  eV     1   --> A              
     e( 36 - 36) =     11.25987  eV     1   --> A              

 **************************************************************************

 **************************************************************************

                    xk=(  -0.50000,   0.14434,   0.00000  )

     Band symmetry, C_1 (1)     point group:

     e(  1 -  1) =    -69.75919  eV     1   --> A              
     e(  2 -  2) =    -69.16010  eV     1   --> A              
     e(  3 -  3) =    -69.15985  eV     1   --> A              
     e(  4 -  4) =    -36.51033  eV     1   --> A              
     e(  5 -  5) =    -36.50688  eV     1   --> A              
     e(  6 -  6) =    -36.50569  eV     1   --> A              
     e(  7 -  7) =    -35.91382  eV     1   --> A              
     e(  8 -  8) =    -35.91235  eV     1   --> A              
     e(  9 -  9) =    -35.91202  eV     1   --> A              
     e( 10 - 10) =    -35.90909  eV     1   --> A              
     e( 11 - 11) =    -35.90734  eV     1   --> A              
     e( 12 - 12) =    -35.90665  eV     1   --> A              
     e( 13 - 13) =    -14.73222  eV     1   --> A              
     e( 14 - 14) =    -14.72777  eV     1   --> A              
     e( 15 - 15) =    -14.72597  eV     1   --> A              
     e( 16 - 16) =    -14.72172  eV     1   --> A              
     e( 17 - 17) =    -14.71457  eV     1   --> A              
     e( 18 - 18) =    -14.71300  eV     1   --> A              
     e( 19 - 19) =    -14.69518  eV     1   --> A              
     e( 20 - 20) =    -14.69321  eV     1   --> A              
     e( 21 - 21) =    -14.69146  eV     1   --> A              
     e( 22 - 22) =    -14.68532  eV     1   --> A              
     e( 23 - 23) =     -3.23042  eV     1   --> A              
     e( 24 - 24) =     -2.92297  eV     1   --> A              
     e( 25 - 25) =      3.01228  eV     1   --> A              
     e( 26 - 26) =      3.84135  eV     1   --> A              
     e( 27 - 27) =      4.18463  eV     1   --> A              
     e( 28 - 28) =      4.76545  eV     1   --> A              
     e( 29 - 29) =      5.51980  eV     1   --> A              
     e( 30 - 30) =      6.09379  eV     1   --> A              
     e( 31 - 31) =      8.23669  eV     1   --> A              
     e( 32 - 32) =      9.16191  eV     1   --> A              
     e( 33 - 33) =      9.86151  eV     1   --> A              
     e( 34 - 34) =     10.95064  eV     1   --> A              
     e( 35 - 35) =     12.07712  eV     1   --> A              
     e( 36 - 36) =     12.52469  eV     1   --> A              

 **************************************************************************

 **************************************************************************

                    xk=(  -0.50000,   0.14434,  -0.12658  )

     Band symmetry, C_1 (1)     point group:

     e(  1 -  1) =    -69.75919  eV     1   --> A              
     e(  2 -  2) =    -69.16009  eV     1   --> A              
     e(  3 -  3) =    -69.15985  eV     1   --> A              
     e(  4 -  4) =    -36.51043  eV     1   --> A              
     e(  5 -  5) =    -36.50660  eV     1   --> A              
     e(  6 -  6) =    -36.50570  eV     1   --> A              
     e(  7 -  7) =    -35.91342  eV     1   --> A              
     e(  8 -  8) =    -35.91248  eV     1   --> A              
     e(  9 -  9) =    -35.91191  eV     1   --> A              
     e( 10 - 10) =    -35.90882  eV     1   --> A              
     e( 11 - 11) =    -35.90735  eV     1   --> A              
     e( 12 - 12) =    -35.90690  eV     1   --> A              
     e( 13 - 13) =    -14.73209  eV     1   --> A              
     e( 14 - 14) =    -14.72724  eV     1   --> A              
     e( 15 - 15) =    -14.72628  eV     1   --> A              
     e( 16 - 16) =    -14.72224  eV     1   --> A              
     e( 17 - 17) =    -14.71478  eV     1   --> A              
     e( 18 - 18) =    -14.71260  eV     1   --> A              
     e( 19 - 19) =    -14.69486  eV     1   --> A              
     e( 20 - 20) =    -14.69300  eV     1   --> A              
     e( 21 - 21) =    -14.69178  eV     1   --> A              
     e( 22 - 22) =    -14.68548  eV     1   --> A              
     e( 23 - 23) =     -3.20418  eV     1   --> A              
     e( 24 - 24) =     -2.94712  eV     1   --> A              
     e( 25 - 25) =      2.87870  eV     1   --> A              
     e( 26 - 26) =      3.55735  eV     1   --> A              
     e( 27 - 27) =      4.48928  eV     1   --> A              
     e( 28 - 28) =      4.96506  eV     1   --> A              
     e( 29 - 29) =      5.77180  eV     1   --> A              
     e( 30 - 30) =      6.02532  eV     1   --> A              
     e( 31 - 31) =      8.17886  eV     1   --> A              
     e( 32 - 32) =      9.29994  eV     1   --> A              
     e( 33 - 33) =      9.65292  eV     1   --> A              
     e( 34 - 34) =     11.00484  eV     1   --> A              
     e( 35 - 35) =     11.04442  eV     1   --> A              
     e( 36 - 36) =     12.37082  eV     1   --> A              

 **************************************************************************

 **************************************************************************

                    xk=(  -0.50000,   0.14434,  -0.25316  )

     Band symmetry, C_1 (1)     point group:

     e(  1 -  1) =    -69.75921  eV     1   --> A              
     e(  2 -  2) =    -69.16012  eV     1   --> A              
     e(  3 -  3) =    -69.15986  eV     1   --> A              
     e(  4 -  4) =    -36.51114  eV     1   --> A              
     e(  5 -  5) =    -36.50671  eV     1   --> A              
     e(  6 -  6) =    -36.50593  eV     1   --> A              
     e(  7 -  7) =    -35.91360  eV     1   --> A              
     e(  8 -  8) =    -35.91302  eV     1   --> A              
     e(  9 -  9) =    -35.91184  eV     1   --> A              
     e( 10 - 10) =    -35.90907  eV     1   --> A              
     e( 11 - 11) =    -35.90802  eV     1   --> A              
     e( 12 - 12) =    -35.90739  eV     1   --> A              
     e( 13 - 13) =    -14.73155  eV     1   --> A              
     e( 14 - 14) =    -14.72723  eV     1   --> A              
     e( 15 - 15) =    -14.72624  eV     1   --> A              
     e( 16 - 16) =    -14.72315  eV     1   --> A              
     e( 17 - 17) =    -14.71506  eV     1   --> A              
     e( 18 - 18) =    -14.71211  eV     1   --> A              
     e( 19 - 19) =    -14.69443  eV     1   --> A              
     e( 20 - 20) =    -14.69310  eV     1   --> A              
     e( 21 - 21) =    -14.69171  eV     1   --> A              
     e( 22 - 22) =    -14.68590  eV     1   --> A              
     e( 23 - 23) =     -3.13885  eV     1   --> A              
     e( 24 - 24) =     -3.00987  eV     1   --> A              
     e( 25 - 25) =      2.78748  eV     1   --> A              
     e( 26 - 26) =      3.21947  eV     1   --> A              
     e( 27 - 27) =      4.69439  eV     1   --> A              
     e( 28 - 28) =      5.35862  eV     1   --> A              
     e( 29 - 29) =      5.79800  eV     1   --> A              
     e( 30 - 30) =      6.46770  eV     1   --> A              
     e( 31 - 31) =      7.95301  eV     1   --> A              
     e( 32 - 32) =      9.27205  eV     1   --> A              
     e( 33 - 33) =      9.68725  eV     1   --> A              
     e( 34 - 34) =     10.13510  eV     1   --> A              
     e( 35 - 35) =     10.65368  eV     1   --> A              
     e( 36 - 36) =     11.83602  eV     1   --> A              

 **************************************************************************

 **************************************************************************

                    xk=(  -0.50000,   0.00000,   0.00000  )

     point group C_2  (2)   
     there are  2 classes
     the character table:

       E     C2   
A      1.00  1.00
B      1.00 -1.00

     the symmetry operations in each class and the name of the first element:

     E        1
                                                                 
     C2       2
                                                                 

     Band symmetry, C_2  (2)    point group:

     e(  1 -  1) =    -69.75916  eV     1   --> A              
     e(  2 -  2) =    -69.16007  eV     1   --> A              
     e(  3 -  3) =    -69.15981  eV     1   --> B              
     e(  4 -  4) =    -36.50934  eV     1   --> B              
     e(  5 -  5) =    -36.50673  eV     1   --> B              
     e(  6 -  6) =    -36.50535  eV     1   --> A              
     e(  7 -  7) =    -35.91312  eV     1   --> A              
     e(  8 -  8) =    -35.91261  eV     1   --> B              
     e(  9 -  9) =    -35.91084  eV     1   --> A              
     e( 10 - 10) =    -35.90918  eV     1   --> B              
     e( 11 - 11) =    -35.90636  eV     1   --> A              
     e( 12 - 12) =    -35.90623  eV     1   --> B              
     e( 13 - 13) =    -14.73146  eV     1   --> A              
     e( 14 - 14) =    -14.72809  eV     1   --> B              
     e( 15 - 15) =    -14.72567  eV     1   --> A              
     e( 16 - 16) =    -14.72208  eV     1   --> B              
     e( 17 - 17) =    -14.71407  eV     1   --> B              
     e( 18 - 18) =    -14.71334  eV     1   --> A              
     e( 19 - 19) =    -14.69576  eV     1   --> A              
     e( 20 - 20) =    -14.69327  eV     1   --> B              
     e( 21 - 21) =    -14.69037  eV     1   --> A              
     e( 22 - 22) =    -14.68607  eV     1   --> B              
     e( 23 - 23) =     -3.24235  eV     1   --> A              
     e( 24 - 24) =     -2.91235  eV     1   --> B              
     e( 25 - 25) =      3.31888  eV     1   --> A              
     e( 26 - 26) =      3.75303  eV     1   --> B              
     e( 27 - 27) =      4.09414  eV     1   --> A              
     e( 28 - 28) =      4.57203  eV     1   --> A              
     e( 29 - 29) =      5.55552  eV     1   --> B              
     e( 30 - 30) =      5.71575  eV     1   --> B              
     e( 31 - 31) =      8.12033  eV     1   --> A              
     e( 32 - 32) =     10.48305  eV     1   --> B              
     e( 33 - 33) =     10.53746  eV     1   --> A              
     e( 34 - 34) =     11.00609  eV     1   --> A              
     e( 35 - 35) =     11.36561  eV     1   --> B              
     e( 36 - 36) =     12.22028  eV     1   --> B              

 **************************************************************************

 **************************************************************************

                    xk=(  -0.50000,   0.00000,  -0.12658  )

     point group C_1 (1)    
     there are  1 classes
     the character table:

       E    
A      1.00

     the symmetry operations in each class and the name of the first element:

     E        1
                                                                 

     Band symmetry, C_1 (1)     point group:

     e(  1 -  1) =    -69.75920  eV     1   --> A              
     e(  2 -  2) =    -69.16011  eV     1   --> A              
     e(  3 -  3) =    -69.15984  eV     1   --> A              
     e(  4 -  4) =    -36.51063  eV     1   --> A              
     e(  5 -  5) =    -36.50696  eV     1   --> A              
     e(  6 -  6) =    -36.50548  eV     1   --> A              
     e(  7 -  7) =    -35.91355  eV     1   --> A              
     e(  8 -  8) =    -35.91292  eV     1   --> A              
     e(  9 -  9) =    -35.91147  eV     1   --> A              
     e( 10 - 10) =    -35.90919  eV     1   --> A              
     e( 11 - 11) =    -35.90736  eV     1   --> A              
     e( 12 - 12) =    -35.90707  eV     1   --> A              
     e( 13 - 13) =    -14.73111  eV     1   --> A              
     e( 14 - 14) =    -14.72802  eV     1   --> A              
     e( 15 - 15) =    -14.72590  eV     1   --> A              
     e( 16 - 16) =    -14.72255  eV     1   --> A              
     e( 17 - 17) =    -14.71418  eV     1   --> A              
     e( 18 - 18) =    -14.71310  eV     1   --> A              
     e( 19 - 19) =    -14.69552  eV     1   --> A              
     e( 20 - 20) =    -14.69319  eV     1   --> A              
     e( 21 - 21) =    -14.69041  eV     1   --> A              
     e( 22 - 22) =    -14.68637  eV     1   --> A              
     e( 23 - 23) =     -3.21361  eV     1   --> A              
     e( 24 - 24) =     -2.94035  eV     1   --> A              
     e( 25 - 25) =      3.27478  eV     1   --> A              
     e( 26 - 26) =      3.40380  eV     1   --> A              
     e( 27 - 27) =      4.31982  eV     1   --> A              
     e( 28 - 28) =      4.78315  eV     1   --> A              
     e( 29 - 29) =      5.31525  eV     1   --> A              
     e( 30 - 30) =      6.17235  eV     1   --> A              
     e( 31 - 31) =      8.54136  eV     1   --> A              
     e( 32 - 32) =      9.57080  eV     1   --> A              
     e( 33 - 33) =     10.58662  eV     1   --> A              
     e( 34 - 34) =     10.89650  eV     1   --> A              
     e( 35 - 35) =     11.06746  eV     1   --> A              
     e( 36 - 36) =     12.13287  eV     1   --> A              

 **************************************************************************

 **************************************************************************

                    xk=(  -0.50000,   0.00000,  -0.25316  )

     Band symmetry, C_1 (1)     point group:

     e(  1 -  1) =    -69.75919  eV     1   --> A              
     e(  2 -  2) =    -69.16010  eV     1   --> A              
     e(  3 -  3) =    -69.15984  eV     1   --> A              
     e(  4 -  4) =    -36.51057  eV     1   --> A              
     e(  5 -  5) =    -36.50680  eV     1   --> A              
     e(  6 -  6) =    -36.50559  eV     1   --> A              
     e(  7 -  7) =    -35.91351  eV     1   --> A              
     e(  8 -  8) =    -35.91286  eV     1   --> A              
     e(  9 -  9) =    -35.91154  eV     1   --> A              
     e( 10 - 10) =    -35.90908  eV     1   --> A              
     e( 11 - 11) =    -35.90742  eV     1   --> A              
     e( 12 - 12) =    -35.90692  eV     1   --> A              
     e( 13 - 13) =    -14.73050  eV     1   --> A              
     e( 14 - 14) =    -14.72783  eV     1   --> A              
     e( 15 - 15) =    -14.72608  eV     1   --> A              
     e( 16 - 16) =    -14.72348  eV     1   --> A              
     e( 17 - 17) =    -14.71424  eV     1   --> A              
     e( 18 - 18) =    -14.71275  eV     1   --> A              
     e( 19 - 19) =    -14.69505  eV     1   --> A              
     e( 20 - 20) =    -14.69316  eV     1   --> A              
     e( 21 - 21) =    -14.69040  eV     1   --> A              
     e( 22 - 22) =    -14.68682  eV     1   --> A              
     e( 23 - 23) =     -3.14505  eV     1   --> A              
     e( 24 - 24) =     -3.00777  eV     1   --> A              
     e( 25 - 25) =      3.14577  eV     1   --> A              
     e( 26 - 26) =      3.22148  eV     1   --> A              
     e( 27 - 27) =      4.26118  eV     1   --> A              
     e( 28 - 28) =      4.87241  eV     1   --> A              
     e( 29 - 29) =      5.80495  eV     1   --> A              
     e( 30 - 30) =      6.55946  eV     1   --> A              
     e( 31 - 31) =      8.74007  eV     1   --> A              
     e( 32 - 32) =      9.32406  eV     1   --> A              
     e( 33 - 33) =      9.98881  eV     1   --> A              
     e( 34 - 34) =     10.61784  eV     1   --> A              
     e( 35 - 35) =     11.21562  eV     1   --> A              
     e( 36 - 36) =     11.36765  eV     1   --> A              

 **************************************************************************

 **************************************************************************

                    xk=(  -0.62500,   0.07217,   0.00000  )

     point group C_2  (2)   
     there are  2 classes
     the character table:

       E     C2   
A      1.00  1.00
B      1.00 -1.00

     the symmetry operations in each class and the name of the first element:

     E        1
                                                                 
     C2       2
                                                                 

     Band symmetry, C_2  (2)    point group:

     e(  1 -  1) =    -69.75919  eV     1   --> A              
     e(  2 -  2) =    -69.16002  eV     1   --> B              
     e(  3 -  3) =    -69.15992  eV     1   --> A              
     e(  4 -  4) =    -36.50976  eV     1   --> B              
     e(  5 -  5) =    -36.50659  eV     1   --> B              
     e(  6 -  6) =    -36.50625  eV     1   --> A              
     e(  7 -  7) =    -35.91311  eV     1   --> A              
     e(  8 -  8) =    -35.91263  eV     1   --> A              
     e(  9 -  9) =    -35.91233  eV     1   --> B              
     e( 10 - 10) =    -35.90959  eV     1   --> B              
     e( 11 - 12) =    -35.90652  eV     2   --> A              
     e( 11 - 12) =    -35.90652  eV     2   --> B              
     e( 13 - 13) =    -14.73167  eV     1   --> A              
     e( 14 - 14) =    -14.72742  eV     1   --> A              
     e( 15 - 15) =    -14.72631  eV     1   --> B              
     e( 16 - 16) =    -14.72168  eV     1   --> B              
     e( 17 - 17) =    -14.71370  eV     1   --> A              
     e( 18 - 18) =    -14.71305  eV     1   --> B              
     e( 19 - 19) =    -14.69597  eV     1   --> A              
     e( 20 - 20) =    -14.69156  eV     1   --> A              
     e( 21 - 21) =    -14.69106  eV     1   --> B              
     e( 22 - 22) =    -14.68628  eV     1   --> B              
     e( 23 - 23) =     -3.08632  eV     1   --> B              
     e( 24 - 24) =     -2.95999  eV     1   --> A              
     e( 25 - 25) =      3.14287  eV     1   --> A              
     e( 26 - 26) =      3.92052  eV     1   --> B              
     e( 27 - 27) =      4.00797  eV     1   --> A              
     e( 28 - 28) =      4.64939  eV     1   --> B              
     e( 29 - 29) =      5.19383  eV     1   --> A              
     e( 30 - 30) =      5.27074  eV     1   --> B              
     e( 31 - 31) =      7.82668  eV     1   --> A              
     e( 32 - 32) =     10.42179  eV     1   --> A              
     e( 33 - 33) =     11.23893  eV     1   --> B              
     e( 34 - 34) =     11.57490  eV     1   --> A              
     e( 35 - 35) =     12.39793  eV     1   --> B              
     e( 36 - 36) =     12.50956  eV     1   -->   ?

 **************************************************************************

 **************************************************************************

                    xk=(  -0.62500,   0.07217,  -0.12658  )

     point group C_1 (1)    
     there are  1 classes
     the character table:

       E    
A      1.00

     the symmetry operations in each class and the name of the first element:

     E        1
                                                                 

     Band symmetry, C_1 (1)     point group:

     e(  1 -  1) =    -69.75923  eV     1   --> A              
     e(  2 -  3) =    -69.16005  eV     2   -->   2 A              
     e(  4 -  4) =    -36.51081  eV     1   --> A              
     e(  5 -  5) =    -36.50704  eV     1   --> A              
     e(  6 -  6) =    -36.50652  eV     1   --> A              
     e(  7 -  7) =    -35.91402  eV     1   --> A              
     e(  8 -  8) =    -35.91271  eV     1   --> A              
     e(  9 -  9) =    -35.91253  eV     1   --> A              
     e( 10 - 10) =    -35.90987  eV     1   --> A              
     e( 11 - 11) =    -35.90765  eV     1   --> A              
     e( 12 - 12) =    -35.90734  eV     1   --> A              
     e( 13 - 13) =    -14.73122  eV     1   --> A              
     e( 14 - 14) =    -14.72744  eV     1   --> A              
     e( 15 - 15) =    -14.72660  eV     1   --> A              
     e( 16 - 16) =    -14.72216  eV     1   --> A              
     e( 17 - 17) =    -14.71378  eV     1   --> A              
     e( 18 - 18) =    -14.71286  eV     1   --> A              
     e( 19 - 19) =    -14.69571  eV     1   --> A              
     e( 20 - 20) =    -14.69148  eV     1   --> A              
[...]
     e( 16 - 16) =    -14.72341  eV     1   --> A''            
     e( 17 - 17) =    -14.71613  eV     1   --> A'             
     e( 18 - 18) =    -14.71442  eV     1   --> A'             
     e( 19 - 19) =    -14.69703  eV     1   --> A'             
     e( 20 - 20) =    -14.69574  eV     1   --> A''            
     e( 21 - 21) =    -14.68950  eV     1   --> A'             
     e( 22 - 22) =    -14.68680  eV     1   --> A''            
     e( 23 - 23) =     -3.61607  eV     1   --> A'             
     e( 24 - 24) =     -3.04037  eV     1   --> A'             
     e( 25 - 25) =      3.28323  eV     1   --> A'             
     e( 26 - 26) =      4.11156  eV     1   --> A'             
     e( 27 - 27) =      4.70586  eV     1   --> A'             
     e( 28 - 28) =      5.75915  eV     1   --> A''            
     e( 29 - 29) =      6.73876  eV     1   --> A'             
     e( 30 - 30) =      6.85520  eV     1   --> A''            
     e( 31 - 31) =      8.66151  eV     1   --> A'             
     e( 32 - 32) =      8.93631  eV     1   --> A'             
     e( 33 - 33) =      9.82910  eV     1   --> A'             
     e( 34 - 34) =     10.63650  eV     1   --> A''            
     e( 35 - 35) =     10.73453  eV     1   --> A'             
     e( 36 - 36) =     11.63354  eV     1   --> A'             

 **************************************************************************

 **************************************************************************

                    xk=(   0.25000,   0.14434,   0.25316  )

     Band symmetry, C_s (m)     point group:

     e(  1 -  1) =    -69.75923  eV     1   --> A'             
     e(  2 -  2) =    -69.16034  eV     1   --> A'             
     e(  3 -  3) =    -69.15969  eV     1   --> A'             
     e(  4 -  4) =    -36.51076  eV     1   --> A'             
     e(  5 -  5) =    -36.50677  eV     1   --> A''            
     e(  6 -  6) =    -36.50644  eV     1   --> A'             
     e(  7 -  7) =    -35.91359  eV     1   --> A''            
     e(  8 -  8) =    -35.91261  eV     1   --> A'             
     e(  9 -  9) =    -35.91145  eV     1   --> A'             
     e( 10 - 10) =    -35.90945  eV     1   --> A''            
     e( 11 - 11) =    -35.90883  eV     1   --> A'             
     e( 12 - 12) =    -35.90737  eV     1   --> A'             
     e( 13 - 13) =    -14.73010  eV     1   --> A'             
     e( 14 - 14) =    -14.72748  eV     1   --> A''            
     e( 15 - 15) =    -14.72681  eV     1   --> A'             
     e( 16 - 16) =    -14.72379  eV     1   --> A''            
     e( 17 - 17) =    -14.71633  eV     1   --> A'             
     e( 18 - 18) =    -14.71402  eV     1   --> A'             
     e( 19 - 19) =    -14.69687  eV     1   --> A'             
     e( 20 - 20) =    -14.69572  eV     1   --> A''            
     e( 21 - 21) =    -14.68956  eV     1   --> A'             
     e( 22 - 22) =    -14.68690  eV     1   --> A''            
     e( 23 - 23) =     -3.48979  eV     1   --> A'             
     e( 24 - 24) =     -3.19844  eV     1   --> A'             
     e( 25 - 25) =      3.54845  eV     1   --> A'             
     e( 26 - 26) =      3.84677  eV     1   --> A'             
     e( 27 - 27) =      5.18627  eV     1   --> A'             
     e( 28 - 28) =      5.97865  eV     1   --> A''            
     e( 29 - 29) =      6.10593  eV     1   --> A'             
     e( 30 - 30) =      6.49043  eV     1   --> A''            
     e( 31 - 31) =      8.44568  eV     1   --> A'             
     e( 32 - 32) =      9.02169  eV     1   --> A'             
     e( 33 - 33) =     10.01849  eV     1   --> A'             
     e( 34 - 34) =     11.05763  eV     1   --> A'             
     e( 35 - 35) =     11.09233  eV     1   --> A''            
     e( 36 - 36) =     11.65283  eV     1   --> A'             

 **************************************************************************

 **************************************************************************

                    xk=(   0.37500,   0.21651,   0.12658  )

     Band symmetry, C_s (m)     point group:

     e(  1 -  1) =    -69.75921  eV     1   --> A'             
     e(  2 -  2) =    -69.16020  eV     1   --> A'             
     e(  3 -  3) =    -69.15979  eV     1   --> A'             
     e(  4 -  4) =    -36.51078  eV     1   --> A'             
     e(  5 -  5) =    -36.50670  eV     1   --> A''            
     e(  6 -  6) =    -36.50622  eV     1   --> A'             
     e(  7 -  7) =    -35.91402  eV     1   --> A''            
     e(  8 -  8) =    -35.91242  eV     1   --> A'             
     e(  9 -  9) =    -35.91228  eV     1   --> A'             
     e( 10 - 10) =    -35.90891  eV     1   --> A''            
     e( 11 - 11) =    -35.90793  eV     1   --> A'             
     e( 12 - 12) =    -35.90725  eV     1   --> A'             
     e( 13 - 13) =    -14.73166  eV     1   --> A'             
     e( 14 - 14) =    -14.72746  eV     1   --> A''            
     e( 15 - 15) =    -14.72691  eV     1   --> A'             
     e( 16 - 16) =    -14.72210  eV     1   --> A''            
     e( 17 - 17) =    -14.71542  eV     1   --> A'             
     e( 18 - 18) =    -14.71296  eV     1   --> A'             
     e( 19 - 19) =    -14.69550  eV     1   --> A'             
     e( 20 - 20) =    -14.69409  eV     1   --> A''            
     e( 21 - 21) =    -14.69095  eV     1   --> A'             
     e( 22 - 22) =    -14.68560  eV     1   --> A''            
     e( 23 - 23) =     -3.34468  eV     1   --> A'             
     e( 24 - 24) =     -2.96221  eV     1   --> A'             
     e( 25 - 25) =      3.06422  eV     1   --> A'             
     e( 26 - 26) =      3.61159  eV     1   --> A'             
     e( 27 - 27) =      4.28432  eV     1   --> A'             
     e( 28 - 28) =      5.43478  eV     1   --> A''            
     e( 29 - 29) =      6.26842  eV     1   --> A'             
     e( 30 - 30) =      6.59379  eV     1   --> A''            
     e( 31 - 31) =      7.95055  eV     1   --> A'             
     e( 32 - 32) =      8.62804  eV     1   --> A'             
     e( 33 - 33) =      9.75916  eV     1   --> A'             
     e( 34 - 34) =     10.59657  eV     1   --> A''            
     e( 35 - 35) =     10.90236  eV     1   --> A'             
     e( 36 - 36) =     11.94706  eV     1   --> A'             

 **************************************************************************

 **************************************************************************

                    xk=(   0.37500,   0.21651,   0.25316  )

     Band symmetry, C_s (m)     point group:

     e(  1 -  1) =    -69.75921  eV     1   --> A'             
     e(  2 -  2) =    -69.16016  eV     1   --> A'             
     e(  3 -  3) =    -69.15983  eV     1   --> A'             
     e(  4 -  4) =    -36.51057  eV     1   --> A'             
     e(  5 -  5) =    -36.50676  eV     1   --> A''            
     e(  6 -  6) =    -36.50626  eV     1   --> A'             
     e(  7 -  7) =    -35.91426  eV     1   --> A''            
     e(  8 -  8) =    -35.91278  eV     1   --> A'             
     e(  9 -  9) =    -35.91167  eV     1   --> A'             
     e( 10 - 10) =    -35.90876  eV     1   --> A''            
     e( 11 - 11) =    -35.90801  eV     1   --> A'             
     e( 12 - 12) =    -35.90705  eV     1   --> A'             
     e( 13 - 13) =    -14.73137  eV     1   --> A'             
     e( 14 - 14) =    -14.72753  eV     1   --> A'             
     e( 15 - 15) =    -14.72648  eV     1   --> A''            
     e( 16 - 16) =    -14.72290  eV     1   --> A''            
     e( 17 - 17) =    -14.71574  eV     1   --> A'             
     e( 18 - 18) =    -14.71241  eV     1   --> A'             
     e( 19 - 19) =    -14.69524  eV     1   --> A'             
     e( 20 - 20) =    -14.69395  eV     1   --> A''            
     e( 21 - 21) =    -14.69108  eV     1   --> A'             
     e( 22 - 22) =    -14.68584  eV     1   --> A''            
     e( 23 - 23) =     -3.25187  eV     1   --> A'             
     e( 24 - 24) =     -3.06298  eV     1   --> A'             
     e( 25 - 25) =      2.95810  eV     1   --> A'             
     e( 26 - 26) =      3.28744  eV     1   --> A'             
     e( 27 - 27) =      5.14431  eV     1   --> A'             
     e( 28 - 28) =      5.66851  eV     1   --> A''            
     e( 29 - 29) =      6.16593  eV     1   --> A'             
     e( 30 - 30) =      6.19532  eV     1   --> A''            
     e( 31 - 31) =      8.10137  eV     1   --> A'             
     e( 32 - 32) =      8.47366  eV     1   --> A'             
     e( 33 - 33) =      9.18454  eV     1   --> A'             
     e( 34 - 34) =     10.52925  eV     1   --> A'             
     e( 35 - 35) =     11.41160  eV     1   --> A''            
     e( 36 - 36) =     12.08882  eV     1   --> A'             

 **************************************************************************

 **************************************************************************

                    xk=(   0.37500,   0.07217,   0.12658  )

     point group C_1 (1)    
     there are  1 classes
     the character table:

       E    
A      1.00

     the symmetry operations in each class and the name of the first element:

     E        1
                                                                 

     Band symmetry, C_1 (1)     point group:

     e(  1 -  1) =    -69.75920  eV     1   --> A              
     e(  2 -  2) =    -69.16023  eV     1   --> A              
     e(  3 -  3) =    -69.15972  eV     1   --> A              
     e(  4 -  4) =    -36.51025  eV     1   --> A              
     e(  5 -  5) =    -36.50701  eV     1   --> A              
     e(  6 -  6) =    -36.50562  eV     1   --> A              
     e(  7 -  7) =    -35.91341  eV     1   --> A              
     e(  8 -  8) =    -35.91239  eV     1   --> A              
     e(  9 -  9) =    -35.91126  eV     1   --> A              
     e( 10 - 10) =    -35.90951  eV     1   --> A              
     e( 11 - 11) =    -35.90784  eV     1   --> A              
     e( 12 - 12) =    -35.90679  eV     1   --> A              
     e( 13 - 13) =    -14.73063  eV     1   --> A              
     e( 14 - 14) =    -14.72830  eV     1   --> A              
     e( 15 - 15) =    -14.72606  eV     1   --> A              
     e( 16 - 16) =    -14.72296  eV     1   --> A              
     e( 17 - 17) =    -14.71526  eV     1   --> A              
     e( 18 - 18) =    -14.71366  eV     1   --> A              
     e( 19 - 19) =    -14.69591  eV     1   --> A              
     e( 20 - 20) =    -14.69490  eV     1   --> A              
     e( 21 - 21) =    -14.69004  eV     1   --> A              
     e( 22 - 22) =    -14.68628  eV     1   --> A              
     e( 23 - 23) =     -3.43698  eV     1   --> A              
     e( 24 - 24) =     -2.97710  eV     1   --> A              
     e( 25 - 25) =      3.36202  eV     1   --> A              
     e( 26 - 26) =      3.66810  eV     1   --> A              
     e( 27 - 27) =      4.40695  eV     1   --> A              
     e( 28 - 28) =      5.18591  eV     1   --> A              
     e( 29 - 29) =      6.10006  eV     1   --> A              
     e( 30 - 30) =      6.63470  eV     1   --> A              
     e( 31 - 31) =      8.89878  eV     1   --> A              
     e( 32 - 32) =      9.22199  eV     1   --> A              
     e( 33 - 33) =      9.61637  eV     1   --> A              
     e( 34 - 34) =     10.21049  eV     1   --> A              
     e( 35 - 35) =     11.31912  eV     1   --> A              
     e( 36 - 36) =     12.08959  eV     1   --> A              

 **************************************************************************

 **************************************************************************

                    xk=(   0.37500,   0.07217,   0.25316  )

     Band symmetry, C_1 (1)     point group:

     e(  1 -  1) =    -69.75920  eV     1   --> A              
     e(  2 -  2) =    -69.16023  eV     1   --> A              
     e(  3 -  3) =    -69.15975  eV     1   --> A              
     e(  4 -  4) =    -36.51055  eV     1   --> A              
     e(  5 -  5) =    -36.50697  eV     1   --> A              
     e(  6 -  6) =    -36.50567  eV     1   --> A              
     e(  7 -  7) =    -35.91361  eV     1   --> A              
     e(  8 -  8) =    -35.91250  eV     1   --> A              
     e(  9 -  9) =    -35.91145  eV     1   --> A              
     e( 10 - 10) =    -35.90952  eV     1   --> A              
     e( 11 - 11) =    -35.90784  eV     1   --> A              
     e( 12 - 12) =    -35.90688  eV     1   --> A              
     e( 13 - 13) =    -14.73053  eV     1   --> A              
     e( 14 - 14) =    -14.72784  eV     1   --> A              
     e( 15 - 15) =    -14.72602  eV     1   --> A              
     e( 16 - 16) =    -14.72373  eV     1   --> A              
     e( 17 - 17) =    -14.71543  eV     1   --> A              
     e( 18 - 18) =    -14.71326  eV     1   --> A              
     e( 19 - 19) =    -14.69565  eV     1   --> A              
     e( 20 - 20) =    -14.69484  eV     1   --> A              
     e( 21 - 21) =    -14.69013  eV     1   --> A              
     e( 22 - 22) =    -14.68656  eV     1   --> A              
     e( 23 - 23) =     -3.33103  eV     1   --> A              
     e( 24 - 24) =     -3.09958  eV     1   --> A              
     e( 25 - 25) =      3.31579  eV     1   --> A              
     e( 26 - 26) =      3.45658  eV     1   --> A              
     e( 27 - 27) =      5.02366  eV     1   --> A              
     e( 28 - 28) =      5.40970  eV     1   --> A              
     e( 29 - 29) =      5.77369  eV     1   --> A              
     e( 30 - 30) =      6.41879  eV     1   --> A              
     e( 31 - 31) =      8.79341  eV     1   --> A              
     e( 32 - 32) =      9.17945  eV     1   --> A              
     e( 33 - 33) =      9.85787  eV     1   --> A              
     e( 34 - 34) =     10.41507  eV     1   --> A              
     e( 35 - 35) =     11.00689  eV     1   --> A              
     e( 36 - 36) =     11.65528  eV     1   --> A              

 **************************************************************************

 **************************************************************************

                    xk=(   0.50000,   0.14434,   0.12658  )

     Band symmetry, C_1 (1)     point group:

     e(  1 -  1) =    -69.75919  eV     1   --> A              
     e(  2 -  2) =    -69.16010  eV     1   --> A              
     e(  3 -  3) =    -69.15984  eV     1   --> A              
     e(  4 -  4) =    -36.51043  eV     1   --> A              
     e(  5 -  5) =    -36.50659  eV     1   --> A              
     e(  6 -  6) =    -36.50570  eV     1   --> A              
     e(  7 -  7) =    -35.91331  eV     1   --> A              
     e(  8 -  8) =    -35.91259  eV     1   --> A              
     e(  9 -  9) =    -35.91171  eV     1   --> A              
     e( 10 - 10) =    -35.90903  eV     1   --> A              
     e( 11 - 11) =    -35.90729  eV     1   --> A              
     e( 12 - 12) =    -35.90696  eV     1   --> A              
     e( 13 - 13) =    -14.73179  eV     1   --> A              
     e( 14 - 14) =    -14.72766  eV     1   --> A              
     e( 15 - 15) =    -14.72639  eV     1   --> A              
     e( 16 - 16) =    -14.72200  eV     1   --> A              
     e( 17 - 17) =    -14.71478  eV     1   --> A              
     e( 18 - 18) =    -14.71260  eV     1   --> A              
     e( 19 - 19) =    -14.69505  eV     1   --> A              
     e( 20 - 20) =    -14.69326  eV     1   --> A              
     e( 21 - 21) =    -14.69123  eV     1   --> A              
     e( 22 - 22) =    -14.68560  eV     1   --> A              
     e( 23 - 23) =     -3.20162  eV     1   --> A              
     e( 24 - 24) =     -2.95036  eV     1   --> A              
     e( 25 - 25) =      2.93115  eV     1   --> A              
     e( 26 - 26) =      3.52230  eV     1   --> A              
     e( 27 - 27) =      4.36996  eV     1   --> A              
     e( 28 - 28) =      5.02842  eV     1   --> A              
     e( 29 - 29) =      5.77917  eV     1   --> A              
     e( 30 - 30) =      6.06019  eV     1   --> A              
     e( 31 - 31) =      8.35362  eV     1   --> A              
     e( 32 - 32) =      9.21004  eV     1   --> A              
     e( 33 - 33) =      9.69605  eV     1   --> A              
     e( 34 - 34) =     10.28456  eV     1   --> A              
     e( 35 - 35) =     11.57585  eV     1   --> A              
     e( 36 - 36) =     12.18509  eV     1   --> A              

 **************************************************************************

 **************************************************************************

                    xk=(   0.50000,   0.14434,   0.25316  )

     Band symmetry, C_1 (1)     point group:

     e(  1 -  1) =    -69.75921  eV     1   --> A              
     e(  2 -  2) =    -69.16011  eV     1   --> A              
     e(  3 -  3) =    -69.15987  eV     1   --> A              
     e(  4 -  4) =    -36.51114  eV     1   --> A              
     e(  5 -  5) =    -36.50671  eV     1   --> A              
     e(  6 -  6) =    -36.50592  eV     1   --> A              
     e(  7 -  7) =    -35.91361  eV     1   --> A              
     e(  8 -  8) =    -35.91250  eV     1   --> A              
     e(  9 -  9) =    -35.91211  eV     1   --> A              
     e( 10 - 10) =    -35.90945  eV     1   --> A              
     e( 11 - 11) =    -35.90783  eV     1   --> A              
     e( 12 - 12) =    -35.90744  eV     1   --> A              
     e( 13 - 13) =    -14.73132  eV     1   --> A              
     e( 14 - 14) =    -14.72762  eV     1   --> A              
     e( 15 - 15) =    -14.72633  eV     1   --> A              
     e( 16 - 16) =    -14.72295  eV     1   --> A              
     e( 17 - 17) =    -14.71506  eV     1   --> A              
     e( 18 - 18) =    -14.71209  eV     1   --> A              
     e( 19 - 19) =    -14.69457  eV     1   --> A              
     e( 20 - 20) =    -14.69323  eV     1   --> A              
     e( 21 - 21) =    -14.69132  eV     1   --> A              
     e( 22 - 22) =    -14.68599  eV     1   --> A              
     e( 23 - 23) =     -3.13542  eV     1   --> A              
     e( 24 - 24) =     -3.01372  eV     1   --> A              
     e( 25 - 25) =      2.82854  eV     1   --> A              
     e( 26 - 26) =      3.17901  eV     1   --> A              
     e( 27 - 27) =      4.67076  eV     1   --> A              
     e( 28 - 28) =      5.35605  eV     1   --> A              
     e( 29 - 29) =      5.79027  eV     1   --> A              
     e( 30 - 30) =      6.46887  eV     1   --> A              
     e( 31 - 31) =      8.33439  eV     1   --> A              
     e( 32 - 32) =      8.81270  eV     1   --> A              
     e( 33 - 33) =      9.59335  eV     1   --> A              
     e( 34 - 34) =     10.36717  eV     1   --> A              
     e( 35 - 35) =     10.48799  eV     1   --> A              
     e( 36 - 36) =     12.07103  eV     1   --> A              

 **************************************************************************

     BANDS        :     38.19s CPU     30.44s WALL


   This run was terminated on:   5: 5: 4  26Oct2023            

=------------------------------------------------------------------------------=
   JOB DONE.
=------------------------------------------------------------------------------=
