
     Program BANDS v.7.1 starts on  1Dec2023 at 16:12:41 

     This program is part of the open-source Quantum ESPRESSO suite
     for quantum simulation of materials; please cite
         "P. Giannozzi et al., J. Phys.:Condens. Matter 21 395502 (2009);
         "P. Giannozzi et al., J. Phys.:Condens. Matter 29 465901 (2017);
         "P. Giannozzi et al., J. Chem. Phys. 152 154105 (2020);
          URL http://www.quantum-espresso.org", 
     in publications or presentations arising from this work. More details at
     http://www.quantum-espresso.org/quote

     Parallel version (MPI & OpenMP), running on      60 processor cores
     Number of MPI processes:                30
     Threads/MPI process:                     2

     MPI processes distributed on     5 nodes
     R & G space division:  proc/nbgrp/npool/nimage =      30
     13254 MiB available memory on the printing compute node when the environment starts


     Reading xml data from directory:

     ./out/TiS.save/

     IMPORTANT: XC functional enforced from input :
     Exchange-correlation= PBE
                           (   1   4   3   4   0   0   0)
     Any further DFT definition will be discarded
     Please, verify this is what you really want


     Parallelization info
     --------------------
     sticks:   dense  smooth     PW     G-vecs:    dense   smooth      PW
     Min          12      12      4                  386      386      72
     Max          13      13      5                  395      395      81
     Sum         379     379    121                11681    11681    2223

     Using Slab Decomposition


     Check: negative core charge=   -0.000033

     negative rho (up, down):  5.209E-03 0.000E+00
     Reading collected, re-writing distributed wavefunctions
     high-symmetry point:  0.5000 0.2887 0.0000   x coordinate   0.0000
     high-symmetry point:  0.1667 0.8661 0.0000   x coordinate   0.6667

     Plottable bands (eV) written to file TiS.bands.gnu
     Bands written to file TiS.bands

 **************************************************************************

                    xk=(   0.50000,   0.28868,   0.00000  )

     point group C_2h (2/m) 
     there are  4 classes
     the character table:

       E     C2    i     s_h  
A_g    1.00  1.00  1.00  1.00
B_g    1.00 -1.00  1.00 -1.00
A_u    1.00  1.00 -1.00 -1.00
B_u    1.00 -1.00 -1.00  1.00

     the symmetry operations in each class and the name of the first element:

     E        1
                                                                 
     C2       2
                                                                 
     i        3
                                                                 
     s_h      4
                                                                 

     Band symmetry, C_2h (2/m)  point group:

     e(  1 -  1) =    -44.21748  eV     1   --> A_g            
     e(  2 -  2) =    -44.20764  eV     1   --> B_g            
     e(  3 -  3) =    -20.60810  eV     1   --> B_u            
     e(  4 -  4) =    -20.59239  eV     1   --> B_u            
     e(  5 -  5) =    -20.57910  eV     1   --> A_u            
     e(  6 -  6) =    -20.46647  eV     1   --> A_u            
     e(  7 -  7) =    -20.46506  eV     1   --> B_u            
     e(  8 -  8) =    -20.45045  eV     1   --> A_u            
     e(  9 -  9) =     -0.82409  eV     1   --> A_g            
     e( 10 - 10) =     -0.49373  eV     1   --> B_u            
     e( 11 - 11) =      5.66600  eV     1   --> A_g            
     e( 12 - 12) =      7.02196  eV     1   --> B_u            
     e( 13 - 13) =      7.52887  eV     1   --> B_g            
     e( 14 - 14) =      8.29214  eV     1   --> A_u            
     e( 15 - 15) =      8.92231  eV     1   --> A_g            
     e( 16 - 16) =     10.16940  eV     1   --> B_u            
     e( 17 - 17) =     11.23424  eV     1   --> A_g            
     e( 18 - 18) =     12.23009  eV     1   --> B_g            
     e( 19 - 19) =     13.76946  eV     1   --> B_g            
     e( 20 - 20) =     14.91675  eV     1   --> A_g            
     e( 21 - 21) =     15.04723  eV     1   --> B_g            
     e( 22 - 22) =     15.12670  eV     1   --> A_g            
     e( 23 - 23) =     15.14567  eV     1   --> B_g            
     e( 24 - 24) =     15.76221  eV     1   --> A_g            
     e( 25 - 25) =     16.84159  eV     1   --> B_g            
     e( 26 - 26) =     17.09012  eV     1   --> A_g            
     e( 27 - 27) =     17.10284  eV     1   --> B_u            
     e( 28 - 28) =     18.62468  eV     1   --> A_u            
     e( 29 - 29) =     19.42752  eV     1   --> B_g            
     e( 30 - 30) =     19.52867  eV     1   --> B_u            
     e( 31 - 31) =     20.14797  eV     1   --> A_g            
     e( 32 - 32) =     20.62744  eV     1   --> A_u            
     e( 33 - 33) =     23.81957  eV     1   --> A_g            
     e( 34 - 34) =     26.85326  eV     1   --> A_u            
     e( 35 - 35) =     26.91030  eV     1   --> B_u            
     e( 36 - 36) =     27.70612  eV     1   --> B_g            
     e( 37 - 37) =     28.41040  eV     1   --> B_u            
     e( 38 - 38) =     28.45490  eV     1   --> A_g            
     e( 39 - 39) =     28.56861  eV     1   --> B_g            
     e( 40 - 40) =     28.73952  eV     1   --> A_g            

 **************************************************************************

 **************************************************************************

                    xk=(   0.49667,   0.29445,   0.00000  )

     point group C_s (m)    
     there are  2 classes
     the character table:

       E     s    
A'     1.00  1.00
A''    1.00 -1.00

     the symmetry operations in each class and the name of the first element:

     E        1
                                                                 
     s        2
                                                                 

     Band symmetry, C_s (m)     point group:

     e(  1 -  1) =    -44.21747  eV     1   --> A'             
     e(  2 -  2) =    -44.20764  eV     1   --> A''            
     e(  3 -  3) =    -20.60807  eV     1   --> A'             
     e(  4 -  4) =    -20.59238  eV     1   --> A'             
     e(  5 -  5) =    -20.57908  eV     1   --> A''            
     e(  6 -  6) =    -20.46646  eV     1   --> A''            
     e(  7 -  7) =    -20.46510  eV     1   --> A'             
     e(  8 -  8) =    -20.45050  eV     1   --> A''            
     e(  9 -  9) =     -0.82384  eV     1   --> A'             
     e( 10 - 10) =     -0.49369  eV     1   --> A'             
     e( 11 - 11) =      5.66651  eV     1   --> A'             
     e( 12 - 12) =      7.02199  eV     1   --> A'             
     e( 13 - 13) =      7.52922  eV     1   --> A''            
     e( 14 - 14) =      8.29192  eV     1   --> A''            
     e( 15 - 15) =      8.92168  eV     1   --> A'             
     e( 16 - 16) =     10.16298  eV     1   --> A'             
     e( 17 - 17) =     11.23993  eV     1   --> A'             
     e( 18 - 18) =     12.23059  eV     1   --> A''            
     e( 19 - 19) =     13.76927  eV     1   --> A''            
     e( 20 - 20) =     14.91568  eV     1   --> A'             
     e( 21 - 21) =     15.04710  eV     1   --> A''            
     e( 22 - 22) =     15.12640  eV     1   --> A'             
     e( 23 - 23) =     15.14562  eV     1   --> A''            
     e( 24 - 24) =     15.76261  eV     1   --> A'             
     e( 25 - 25) =     16.84133  eV     1   --> A''            
     e( 26 - 26) =     17.03285  eV     1   --> A'             
     e( 27 - 27) =     17.16242  eV     1   --> A'             
     e( 28 - 28) =     18.62644  eV     1   --> A''            
     e( 29 - 29) =     19.42372  eV     1   --> A''            
     e( 30 - 30) =     19.53029  eV     1   --> A'             
     e( 31 - 31) =     20.14966  eV     1   --> A'             
     e( 32 - 32) =     20.62953  eV     1   --> A''            
     e( 33 - 33) =     23.81760  eV     1   --> A'             
     e( 34 - 34) =     26.83947  eV     1   --> A''            
     e( 35 - 35) =     26.91003  eV     1   --> A'             
     e( 36 - 36) =     27.71941  eV     1   --> A''            
     e( 37 - 37) =     28.37045  eV     1   --> A'             
     e( 38 - 38) =     28.44896  eV     1   --> A'             
     e( 39 - 39) =     28.57127  eV     1   --> A''            
     e( 40 - 40) =     28.77920  eV     1   --> A'             

 **************************************************************************

 **************************************************************************

                    xk=(   0.49333,   0.30022,   0.00000  )

     Band symmetry, C_s (m)     point group:

     e(  1 -  1) =    -44.21746  eV     1   --> A'             
     e(  2 -  2) =    -44.20763  eV     1   --> A''            
     e(  3 -  3) =    -20.60799  eV     1   --> A'             
     e(  4 -  4) =    -20.59236  eV     1   --> A'             
     e(  5 -  5) =    -20.57901  eV     1   --> A''            
     e(  6 -  6) =    -20.46645  eV     1   --> A''            
     e(  7 -  7) =    -20.46525  eV     1   --> A'             
     e(  8 -  8) =    -20.45064  eV     1   --> A''            
     e(  9 -  9) =     -0.82309  eV     1   --> A'             
     e( 10 - 10) =     -0.49355  eV     1   --> A'             
     e( 11 - 11) =      5.66804  eV     1   --> A'             
     e( 12 - 12) =      7.02210  eV     1   --> A'             
     e( 13 - 13) =      7.53026  eV     1   --> A''            
     e( 14 - 14) =      8.29127  eV     1   --> A''            
     e( 15 - 15) =      8.91980  eV     1   --> A'             
     e( 16 - 16) =     10.14409  eV     1   --> A'             
     e( 17 - 17) =     11.25661  eV     1   --> A'             
     e( 18 - 18) =     12.23207  eV     1   --> A''            
     e( 19 - 19) =     13.76867  eV     1   --> A''            
     e( 20 - 20) =     14.91244  eV     1   --> A'             
     e( 21 - 21) =     15.04672  eV     1   --> A''            
     e( 22 - 22) =     15.12550  eV     1   --> A'             
     e( 23 - 23) =     15.14548  eV     1   --> A''            
     e( 24 - 24) =     15.76380  eV     1   --> A'             
     e( 25 - 25) =     16.84054  eV     1   --> A''            
     e( 26 - 26) =     16.97206  eV     1   --> A'             
     e( 27 - 27) =     17.23016  eV     1   --> A'             
     e( 28 - 28) =     18.63171  eV     1   --> A''            
     e( 29 - 29) =     19.41245  eV     1   --> A''            
     e( 30 - 30) =     19.53509  eV     1   --> A'             
     e( 31 - 31) =     20.15473  eV     1   --> A'             
     e( 32 - 32) =     20.63564  eV     1   --> A''            
     e( 33 - 33) =     23.81164  eV     1   --> A'             
     e( 34 - 34) =     26.80043  eV     1   --> A''            
     e( 35 - 35) =     26.90907  eV     1   --> A'             
     e( 36 - 36) =     27.75695  eV     1   --> A''            
     e( 37 - 37) =     28.28153  eV     1   --> A'             
     e( 38 - 38) =     28.43166  eV     1   --> A'             
     e( 39 - 39) =     28.57925  eV     1   --> A''            
     e( 40 - 40) =     28.86722  eV     1   --> A'             

 **************************************************************************

 **************************************************************************

                    xk=(   0.49000,   0.30599,   0.00000  )

     Band symmetry, C_s (m)     point group:

     e(  1 -  1) =    -44.21745  eV     1   --> A'             
     e(  2 -  2) =    -44.20762  eV     1   --> A''            
     e(  3 -  3) =    -20.60786  eV     1   --> A'             
     e(  4 -  4) =    -20.59233  eV     1   --> A'             
     e(  5 -  5) =    -20.57889  eV     1   --> A''            
     e(  6 -  6) =    -20.46644  eV     1   --> A''            
     e(  7 -  7) =    -20.46551  eV     1   --> A'             
     e(  8 -  8) =    -20.45087  eV     1   --> A''            
     e(  9 -  9) =     -0.82185  eV     1   --> A'             
     e( 10 - 10) =     -0.49333  eV     1   --> A'             
     e( 11 - 11) =      5.67058  eV     1   --> A'             
     e( 12 - 12) =      7.02227  eV     1   --> A'             
     e( 13 - 13) =      7.53200  eV     1   --> A''            
     e( 14 - 14) =      8.29019  eV     1   --> A''            
     e( 15 - 15) =      8.91668  eV     1   --> A'             
     e( 16 - 16) =     10.11384  eV     1   --> A'             
     e( 17 - 17) =     11.28317  eV     1   --> A'             
     e( 18 - 18) =     12.23455  eV     1   --> A''            
     e( 19 - 19) =     13.76766  eV     1   --> A''            
     e( 20 - 20) =     14.90706  eV     1   --> A'             
     e( 21 - 21) =     15.04610  eV     1   --> A''            
     e( 22 - 22) =     15.12399  eV     1   --> A'             
     e( 23 - 23) =     15.14525  eV     1   --> A''            
     e( 24 - 24) =     15.76579  eV     1   --> A'             
     e( 25 - 25) =     16.83922  eV     1   --> A''            
     e( 26 - 26) =     16.91356  eV     1   --> A'             
     e( 27 - 27) =     17.30021  eV     1   --> A'             
     e( 28 - 28) =     18.64046  eV     1   --> A''            
     e( 29 - 29) =     19.39398  eV     1   --> A''            
     e( 30 - 30) =     19.54309  eV     1   --> A'             
     e( 31 - 31) =     20.16316  eV     1   --> A'             
     e( 32 - 32) =     20.64552  eV     1   --> A''            
     e( 33 - 33) =     23.80175  eV     1   --> A'             
     e( 34 - 34) =     26.74147  eV     1   --> A''            
     e( 35 - 35) =     26.90725  eV     1   --> A'             
     e( 36 - 36) =     27.81340  eV     1   --> A''            
     e( 37 - 37) =     28.17500  eV     1   --> A'             
     e( 38 - 38) =     28.40433  eV     1   --> A'             
     e( 39 - 39) =     28.59253  eV     1   --> A''            
     e( 40 - 40) =     28.97214  eV     1   --> A'             

 **************************************************************************

 **************************************************************************

                    xk=(   0.48666,   0.31176,   0.00000  )

     Band symmetry, C_s (m)     point group:

     e(  1 -  1) =    -44.21744  eV     1   --> A'             
     e(  2 -  2) =    -44.20762  eV     1   --> A''            
     e(  3 -  3) =    -20.60769  eV     1   --> A'             
     e(  4 -  4) =    -20.59229  eV     1   --> A'             
     e(  5 -  5) =    -20.57873  eV     1   --> A''            
     e(  6 -  6) =    -20.46642  eV     1   --> A''            
     e(  7 -  7) =    -20.46587  eV     1   --> A'             
     e(  8 -  8) =    -20.45121  eV     1   --> A''            
     e(  9 -  9) =     -0.82011  eV     1   --> A'             
     e( 10 - 10) =     -0.49302  eV     1   --> A'             
     e( 11 - 11) =      5.67413  eV     1   --> A'             
     e( 12 - 12) =      7.02250  eV     1   --> A'             
     e( 13 - 13) =      7.53443  eV     1   --> A''            
     e( 14 - 14) =      8.28867  eV     1   --> A''            
     e( 15 - 15) =      8.91232  eV     1   --> A'             
     e( 16 - 16) =     10.07374  eV     1   --> A'             
     e( 17 - 17) =     11.31815  eV     1   --> A'             
     e( 18 - 18) =     12.23801  eV     1   --> A''            
     e( 19 - 19) =     13.76621  eV     1   --> A''            
     e( 20 - 20) =     14.89956  eV     1   --> A'             
     e( 21 - 21) =     15.04529  eV     1   --> A''            
     e( 22 - 22) =     15.12185  eV     1   --> A'             
     e( 23 - 23) =     15.14492  eV     1   --> A''            
     e( 24 - 24) =     15.76856  eV     1   --> A'             
     e( 25 - 25) =     16.83737  eV     1   --> A''            
     e( 26 - 26) =     16.85745  eV     1   --> A'             
     e( 27 - 27) =     17.37242  eV     1   --> A'             
     e( 28 - 28) =     18.65266  eV     1   --> A''            
     e( 29 - 29) =     19.36876  eV     1   --> A''            
     e( 30 - 30) =     19.55428  eV     1   --> A'             
     e( 31 - 31) =     20.17496  eV     1   --> A'             
     e( 32 - 32) =     20.65875  eV     1   --> A''            
     e( 33 - 33) =     23.78799  eV     1   --> A'             
     e( 34 - 34) =     26.66818  eV     1   --> A''            
     e( 35 - 35) =     26.90441  eV     1   --> A'             
     e( 36 - 36) =     27.88313  eV     1   --> A''            
     e( 37 - 37) =     28.06168  eV     1   --> A'             
     e( 38 - 38) =     28.36875  eV     1   --> A'             
     e( 39 - 39) =     28.61106  eV     1   --> A''            
     e( 40 - 40) =     29.03531  eV     1   --> A'             

 **************************************************************************

 **************************************************************************

                    xk=(   0.48333,   0.31754,   0.00000  )

     Band symmetry, C_s (m)     point group:

     e(  1 -  1) =    -44.21742  eV     1   --> A'             
     e(  2 -  2) =    -44.20760  eV     1   --> A''            
     e(  3 -  3) =    -20.60746  eV     1   --> A'             
     e(  4 -  4) =    -20.59224  eV     1   --> A'             
     e(  5 -  5) =    -20.57851  eV     1   --> A''            
     e(  6 -  7) =    -20.46640  eV     2   --> A'             
     e(  6 -  7) =    -20.46640  eV     2   --> A''            
     e(  8 -  8) =    -20.45163  eV     1   --> A''            
     e(  9 -  9) =     -0.81788  eV     1   --> A'             
     e( 10 - 10) =     -0.49262  eV     1   --> A'             
     e( 11 - 11) =      5.67869  eV     1   --> A'             
     e( 12 - 12) =      7.02280  eV     1   --> A'             
     e( 13 - 13) =      7.53755  eV     1   --> A''            
     e( 14 - 14) =      8.28674  eV     1   --> A''            
     e( 15 - 15) =      8.90676  eV     1   --> A'             
     e( 16 - 16) =     10.02540  eV     1   --> A'             
     e( 17 - 17) =     11.35995  eV     1   --> A'             
     e( 18 - 18) =     12.24245  eV     1   --> A''            
     e( 19 - 19) =     13.76431  eV     1   --> A''            
     e( 20 - 20) =     14.89001  eV     1   --> A'             
     e( 21 - 21) =     15.04438  eV     1   --> A''            
     e( 22 - 22) =     15.11906  eV     1   --> A'             
     e( 23 - 23) =     15.14450  eV     1   --> A''            
     e( 24 - 24) =     15.77212  eV     1   --> A'             
     e( 25 - 25) =     16.80376  eV     1   --> A'             
     e( 26 - 26) =     16.83499  eV     1   --> A''            
     e( 27 - 27) =     17.44670  eV     1   --> A'             
     e( 28 - 28) =     18.66826  eV     1   --> A''            
     e( 29 - 29) =     19.33734  eV     1   --> A''            
     e( 30 - 30) =     19.56867  eV     1   --> A'             
     e( 31 - 31) =     20.19013  eV     1   --> A'             
     e( 32 - 32) =     20.67486  eV     1   --> A''            
     e( 33 - 33) =     23.77046  eV     1   --> A'             
     e( 34 - 34) =     26.58501  eV     1   --> A''            
     e( 35 - 35) =     26.90029  eV     1   --> A'             
     e( 36 - 36) =     27.94537  eV     1   --> A'             
     e( 37 - 37) =     27.96177  eV     1   --> A''            
     e( 38 - 38) =     28.32679  eV     1   --> A'             
     e( 39 - 39) =     28.63481  eV     1   --> A''            
     e( 40 - 40) =     29.04491  eV     1   --> A'             

 **************************************************************************

 **************************************************************************

                    xk=(   0.48000,   0.32331,   0.00000  )

     Band symmetry, C_s (m)     point group:

     e(  1 -  1) =    -44.21739  eV     1   --> A'             
     e(  2 -  2) =    -44.20758  eV     1   --> A''            
     e(  3 -  3) =    -20.60718  eV     1   --> A'             
     e(  4 -  4) =    -20.59217  eV     1   --> A'             
     e(  5 -  5) =    -20.57825  eV     1   --> A''            
     e(  6 -  6) =    -20.46688  eV     1   --> A'             
     e(  7 -  7) =    -20.46636  eV     1   --> A''            
     e(  8 -  8) =    -20.45214  eV     1   --> A''            
     e(  9 -  9) =     -0.81517  eV     1   --> A'             
     e( 10 - 10) =     -0.49213  eV     1   --> A'             
     e( 11 - 11) =      5.68427  eV     1   --> A'             
     e( 12 - 12) =      7.02316  eV     1   --> A'             
     e( 13 - 13) =      7.54134  eV     1   --> A''            
     e( 14 - 14) =      8.28439  eV     1   --> A''            
     e( 15 - 15) =      8.90000  eV     1   --> A'             
     e( 16 - 16) =      9.97031  eV     1   --> A'             
     e( 17 - 17) =     11.40711  eV     1   --> A'             
     e( 18 - 18) =     12.24787  eV     1   --> A''            
     e( 19 - 19) =     13.76194  eV     1   --> A''            
     e( 20 - 20) =     14.87846  eV     1   --> A'             
     e( 21 - 21) =     15.04342  eV     1   --> A''            
     e( 22 - 22) =     15.11559  eV     1   --> A'             
     e( 23 - 23) =     15.14397  eV     1   --> A''            
     e( 24 - 24) =     15.77646  eV     1   --> A'             
     e( 25 - 25) =     16.75250  eV     1   --> A'             
     e( 26 - 26) =     16.83207  eV     1   --> A''            
     e( 27 - 27) =     17.52299  eV     1   --> A'             
     e( 28 - 28) =     18.68722  eV     1   --> A''            
     e( 29 - 29) =     19.30032  eV     1   --> A''            
     e( 30 - 30) =     19.58626  eV     1   --> A'             
     e( 31 - 31) =     20.20868  eV     1   --> A'             
     e( 32 - 32) =     20.69330  eV     1   --> A''            
     e( 33 - 33) =     23.74928  eV     1   --> A'             
     e( 34 - 34) =     26.49500  eV     1   --> A''            
     e( 35 - 35) =     26.89452  eV     1   --> A'             
     e( 36 - 36) =     27.82753  eV     1   --> A'             
     e( 37 - 37) =     28.04627  eV     1   --> A''            
     e( 38 - 38) =     28.28016  eV     1   --> A'             
     e( 39 - 39) =     28.66371  eV     1   --> A''            
     e( 40 - 40) =     29.05280  eV     1   --> A'             

 **************************************************************************

 **************************************************************************

                    xk=(   0.47666,   0.32908,   0.00000  )

     Band symmetry, C_s (m)     point group:

     e(  1 -  1) =    -44.21736  eV     1   --> A'             
     e(  2 -  2) =    -44.20756  eV     1   --> A''            
     e(  3 -  3) =    -20.60686  eV     1   --> A'             
     e(  4 -  4) =    -20.59210  eV     1   --> A'             
     e(  5 -  5) =    -20.57795  eV     1   --> A''            
     e(  6 -  6) =    -20.46754  eV     1   --> A'             
     e(  7 -  7) =    -20.46633  eV     1   --> A''            
     e(  8 -  8) =    -20.45275  eV     1   --> A''            
     e(  9 -  9) =     -0.81197  eV     1   --> A'             
     e( 10 - 10) =     -0.49157  eV     1   --> A'             
     e( 11 - 11) =      5.69085  eV     1   --> A'             
     e( 12 - 12) =      7.02358  eV     1   --> A'             
     e( 13 - 13) =      7.54581  eV     1   --> A''            
     e( 14 - 14) =      8.28162  eV     1   --> A''            
     e( 15 - 15) =      8.89207  eV     1   --> A'             
     e( 16 - 16) =      9.90976  eV     1   --> A'             
     e( 17 - 17) =     11.45839  eV     1   --> A'             
     e( 18 - 18) =     12.25426  eV     1   --> A''            
     e( 19 - 19) =     13.75902  eV     1   --> A''            
     e( 20 - 20) =     14.86497  eV     1   --> A'             
     e( 21 - 21) =     15.04251  eV     1   --> A''            
     e( 22 - 22) =     15.11139  eV     1   --> A'             
     e( 23 - 23) =     15.14335  eV     1   --> A''            
     e( 24 - 24) =     15.78155  eV     1   --> A'             
     e( 25 - 25) =     16.70364  eV     1   --> A'             
     e( 26 - 26) =     16.82860  eV     1   --> A''            
     e( 27 - 27) =     17.60113  eV     1   --> A'             
     e( 28 - 28) =     18.70946  eV     1   --> A''            
     e( 29 - 29) =     19.25829  eV     1   --> A''            
     e( 30 - 30) =     19.60703  eV     1   --> A'             
     e( 31 - 31) =     20.23056  eV     1   --> A'             
     e( 32 - 32) =     20.71352  eV     1   --> A''            
     e( 33 - 33) =     23.72454  eV     1   --> A'             
     e( 34 - 34) =     26.40020  eV     1   --> A''            
     e( 35 - 35) =     26.88663  eV     1   --> A'             
     e( 36 - 36) =     27.70891  eV     1   --> A'             
     e( 37 - 37) =     28.13441  eV     1   --> A''            
     e( 38 - 38) =     28.23037  eV     1   --> A'             
     e( 39 - 39) =     28.69768  eV     1   --> A''            
     e( 40 - 40) =     29.05795  eV     1   --> A'             

 **************************************************************************

 **************************************************************************

                    xk=(   0.47333,   0.33485,   0.00000  )

     Band symmetry, C_s (m)     point group:

     e(  1 -  1) =    -44.21733  eV     1   --> A'             
     e(  2 -  2) =    -44.20753  eV     1   --> A''            
     e(  3 -  3) =    -20.60648  eV     1   --> A'             
     e(  4 -  4) =    -20.59201  eV     1   --> A'             
     e(  5 -  5) =    -20.57759  eV     1   --> A''            
     e(  6 -  6) =    -20.46830  eV     1   --> A'             
     e(  7 -  7) =    -20.46628  eV     1   --> A''            
     e(  8 -  8) =    -20.45344  eV     1   --> A''            
     e(  9 -  9) =     -0.80830  eV     1   --> A'             
     e( 10 - 10) =     -0.49093  eV     1   --> A'             
     e( 11 - 11) =      5.69845  eV     1   --> A'             
     e( 12 - 12) =      7.02406  eV     1   --> A'             
     e( 13 - 13) =      7.55093  eV     1   --> A''            
     e( 14 - 14) =      8.27846  eV     1   --> A''            
     e( 15 - 15) =      8.88303  eV     1   --> A'             
     e( 16 - 16) =      9.84482  eV     1   --> A'             
     e( 17 - 17) =     11.51277  eV     1   --> A'             
     e( 18 - 18) =     12.26162  eV     1   --> A''            
     e( 19 - 19) =     13.75556  eV     1   --> A''            
     e( 20 - 20) =     14.84964  eV     1   --> A'             
     e( 21 - 21) =     15.04175  eV     1   --> A''            
     e( 22 - 22) =     15.10643  eV     1   --> A'             
     e( 23 - 23) =     15.14263  eV     1   --> A''            
     e( 24 - 24) =     15.78741  eV     1   --> A'             
     e( 25 - 25) =     16.65718  eV     1   --> A'             
     e( 26 - 26) =     16.82460  eV     1   --> A''            
     e( 27 - 27) =     17.68107  eV     1   --> A'             
     e( 28 - 28) =     18.73491  eV     1   --> A''            
     e( 29 - 29) =     19.21188  eV     1   --> A''            
     e( 30 - 30) =     19.63100  eV     1   --> A'             
     e( 31 - 31) =     20.25579  eV     1   --> A'             
     e( 32 - 32) =     20.73501  eV     1   --> A''            
     e( 33 - 33) =     23.69642  eV     1   --> A'             
     e( 34 - 34) =     26.30201  eV     1   --> A''            
     e( 35 - 35) =     26.87611  eV     1   --> A'             
     e( 36 - 36) =     27.58992  eV     1   --> A'             
     e( 37 - 37) =     28.17886  eV     1   --> A'             
     e( 38 - 38) =     28.22505  eV     1   --> A''            
     e( 39 - 39) =     28.73663  eV     1   --> A''            
     e( 40 - 40) =     29.05966  eV     1   --> A'             

 **************************************************************************

 **************************************************************************

                    xk=(   0.46999,   0.34063,   0.00000  )

     Band symmetry, C_s (m)     point group:

     e(  1 -  1) =    -44.21729  eV     1   --> A'             
     e(  2 -  2) =    -44.20750  eV     1   --> A''            
     e(  3 -  3) =    -20.60606  eV     1   --> A'             
     e(  4 -  4) =    -20.59191  eV     1   --> A'             
     e(  5 -  5) =    -20.57719  eV     1   --> A''            
     e(  6 -  6) =    -20.46915  eV     1   --> A'             
     e(  7 -  7) =    -20.46624  eV     1   --> A''            
     e(  8 -  8) =    -20.45422  eV     1   --> A''            
     e(  9 -  9) =     -0.80417  eV     1   --> A'             
     e( 10 - 10) =     -0.49021  eV     1   --> A'             
     e( 11 - 11) =      5.70704  eV     1   --> A'             
     e( 12 - 12) =      7.02460  eV     1   --> A'             
     e( 13 - 13) =      7.55671  eV     1   --> A''            
     e( 14 - 14) =      8.27490  eV     1   --> A''            
     e( 15 - 15) =      8.87289  eV     1   --> A'             
     e( 16 - 16) =      9.77634  eV     1   --> A'             
     e( 17 - 17) =     11.56946  eV     1   --> A'             
     e( 18 - 18) =     12.26993  eV     1   --> A''            
     e( 19 - 19) =     13.75147  eV     1   --> A''            
     e( 20 - 20) =     14.83256  eV     1   --> A'             
     e( 21 - 21) =     15.04125  eV     1   --> A''            
     e( 22 - 22) =     15.10068  eV     1   --> A'             
     e( 23 - 23) =     15.14181  eV     1   --> A''            
     e( 24 - 24) =     15.79398  eV     1   --> A'             
     e( 25 - 25) =     16.61308  eV     1   --> A'             
     e( 26 - 26) =     16.82005  eV     1   --> A''            
     e( 27 - 27) =     17.76268  eV     1   --> A'             
     e( 28 - 28) =     18.76349  eV     1   --> A''            
     e( 29 - 29) =     19.16162  eV     1   --> A''            
     e( 30 - 30) =     19.65817  eV     1   --> A'             
     e( 31 - 31) =     20.28435  eV     1   --> A'             
     e( 32 - 32) =     20.75733  eV     1   --> A''            
     e( 33 - 33) =     23.66506  eV     1   --> A'             
     e( 34 - 34) =     26.20136  eV     1   --> A''            
     e( 35 - 35) =     26.86235  eV     1   --> A'             
     e( 36 - 36) =     27.47080  eV     1   --> A'             
     e( 37 - 37) =     28.12684  eV     1   --> A'             
     e( 38 - 38) =     28.31707  eV     1   --> A''            
     e( 39 - 39) =     28.78047  eV     1   --> A''            
     e( 40 - 40) =     29.05738  eV     1   --> A'             

 **************************************************************************

 **************************************************************************

                    xk=(   0.46666,   0.34640,   0.00000  )

     Band symmetry, C_s (m)     point group:

     e(  1 -  1) =    -44.21726  eV     1   --> A'             
     e(  2 -  2) =    -44.20746  eV     1   --> A''            
     e(  3 -  3) =    -20.60559  eV     1   --> A'             
     e(  4 -  4) =    -20.59179  eV     1   --> A'             
     e(  5 -  5) =    -20.57675  eV     1   --> A''            
     e(  6 -  6) =    -20.47010  eV     1   --> A'             
     e(  7 -  7) =    -20.46619  eV     1   --> A''            
     e(  8 -  8) =    -20.45509  eV     1   --> A''            
     e(  9 -  9) =     -0.79958  eV     1   --> A'             
     e( 10 - 10) =     -0.48942  eV     1   --> A'             
     e( 11 - 11) =      5.71663  eV     1   --> A'             
     e( 12 - 12) =      7.02519  eV     1   --> A'             
     e( 13 - 13) =      7.56312  eV     1   --> A''            
     e( 14 - 14) =      8.27097  eV     1   --> A''            
     e( 15 - 15) =      8.86170  eV     1   --> A'             
     e( 16 - 16) =      9.70501  eV     1   --> A'             
     e( 17 - 17) =     11.62782  eV     1   --> A'             
     e( 18 - 18) =     12.27918  eV     1   --> A''            
     e( 19 - 19) =     13.74672  eV     1   --> A''            
     e( 20 - 20) =     14.81382  eV     1   --> A'             
     e( 21 - 21) =     15.04113  eV     1   --> A''            
     e( 22 - 22) =     15.09409  eV     1   --> A'             
     e( 23 - 23) =     15.14088  eV     1   --> A''            
     e( 24 - 24) =     15.80126  eV     1   --> A'             
     e( 25 - 25) =     16.57130  eV     1   --> A'             
     e( 26 - 26) =     16.81495  eV     1   --> A''            
     e( 27 - 27) =     17.84586  eV     1   --> A'             
     e( 28 - 28) =     18.79511  eV     1   --> A''            
     e( 29 - 29) =     19.10804  eV     1   --> A''            
     e( 30 - 30) =     19.68855  eV     1   --> A'             
     e( 31 - 31) =     20.31623  eV     1   --> A'             
     e( 32 - 32) =     20.78006  eV     1   --> A''            
     e( 33 - 33) =     23.63064  eV     1   --> A'             
     e( 34 - 34) =     26.09891  eV     1   --> A''            
     e( 35 - 35) =     26.84469  eV     1   --> A'             
     e( 36 - 36) =     27.35173  eV     1   --> A'             
     e( 37 - 37) =     28.07548  eV     1   --> A'             
     e( 38 - 38) =     28.40986  eV     1   --> A''            
     e( 39 - 39) =     28.82907  eV     1   --> A''            
     e( 40 - 40) =     29.05086  eV     1   --> A'             

 **************************************************************************

 **************************************************************************

                    xk=(   0.46333,   0.35217,   0.00000  )

     Band symmetry, C_s (m)     point group:

     e(  1 -  1) =    -44.21722  eV     1   --> A'             
     e(  2 -  2) =    -44.20743  eV     1   --> A''            
     e(  3 -  3) =    -20.60508  eV     1   --> A'             
     e(  4 -  4) =    -20.59167  eV     1   --> A'             
     e(  5 -  5) =    -20.57625  eV     1   --> A''            
     e(  6 -  6) =    -20.47114  eV     1   --> A'             
     e(  7 -  7) =    -20.46613  eV     1   --> A''            
     e(  8 -  8) =    -20.45604  eV     1   --> A''            
     e(  9 -  9) =     -0.79454  eV     1   --> A'             
     e( 10 - 10) =     -0.48856  eV     1   --> A'             
     e( 11 - 11) =      5.72722  eV     1   --> A'             
     e( 12 - 12) =      7.02581  eV     1   --> A'             
     e( 13 - 13) =      7.57015  eV     1   --> A''            
     e( 14 - 14) =      8.26666  eV     1   --> A''            
     e( 15 - 15) =      8.84951  eV     1   --> A'             
     e( 16 - 16) =      9.63137  eV     1   --> A'             
     e( 17 - 17) =     11.68738  eV     1   --> A'             
     e( 18 - 18) =     12.28937  eV     1   --> A''            
     e( 19 - 19) =     13.74126  eV     1   --> A''            
     e( 20 - 20) =     14.79354  eV     1   --> A'             
     e( 21 - 21) =     15.04151  eV     1   --> A''            
     e( 22 - 22) =     15.08664  eV     1   --> A'             
     e( 23 - 23) =     15.13983  eV     1   --> A''            
     e( 24 - 24) =     15.80921  eV     1   --> A'             
     e( 25 - 25) =     16.53178  eV     1   --> A'             
     e( 26 - 26) =     16.80928  eV     1   --> A''            
     e( 27 - 27) =     17.93048  eV     1   --> A'             
     e( 28 - 28) =     18.82965  eV     1   --> A''            
     e( 29 - 29) =     19.05159  eV     1   --> A''            
     e( 30 - 30) =     19.72213  eV     1   --> A'             
     e( 31 - 31) =     20.35140  eV     1   --> A'             
     e( 32 - 32) =     20.80285  eV     1   --> A''            
     e( 33 - 33) =     23.59330  eV     1   --> A'             
     e( 34 - 34) =     25.99510  eV     1   --> A''            
     e( 35 - 35) =     26.82244  eV     1   --> A'             
     e( 36 - 36) =     27.23281  eV     1   --> A'             
     e( 37 - 37) =     28.02579  eV     1   --> A'             
     e( 38 - 38) =     28.50294  eV     1   --> A''            
     e( 39 - 39) =     28.88231  eV     1   --> A''            
     e( 40 - 40) =     29.03996  eV     1   --> A'             

 **************************************************************************

 **************************************************************************

                    xk=(   0.45999,   0.35794,   0.00000  )

     Band symmetry, C_s (m)     point group:

     e(  1 -  1) =    -44.21717  eV     1   --> A'             
     e(  2 -  2) =    -44.20739  eV     1   --> A''            
     e(  3 -  3) =    -20.60452  eV     1   --> A'             
     e(  4 -  4) =    -20.59153  eV     1   --> A'             
     e(  5 -  5) =    -20.57572  eV     1   --> A''            
     e(  6 -  6) =    -20.47227  eV     1   --> A'             
     e(  7 -  7) =    -20.46607  eV     1   --> A''            
     e(  8 -  8) =    -20.45708  eV     1   --> A''            
     e(  9 -  9) =     -0.78906  eV     1   --> A'             
     e( 10 - 10) =     -0.48763  eV     1   --> A'             
     e( 11 - 11) =      5.73880  eV     1   --> A'             
     e( 12 - 12) =      7.02649  eV     1   --> A'             
     e( 13 - 13) =      7.57778  eV     1   --> A''            
     e( 14 - 14) =      8.26199  eV     1   --> A''            
     e( 15 - 15) =      8.83636  eV     1   --> A'             
     e( 16 - 16) =      9.55587  eV     1   --> A'             
     e( 17 - 17) =     11.74777  eV     1   --> A'             
     e( 18 - 18) =     12.30047  eV     1   --> A''            
     e( 19 - 19) =     13.73506  eV     1   --> A''            
     e( 20 - 20) =     14.77184  eV     1   --> A'             
     e( 21 - 21) =     15.04251  eV     1   --> A''            
     e( 22 - 22) =     15.07829  eV     1   --> A'             
     e( 23 - 23) =     15.13867  eV     1   --> A''            
     e( 24 - 24) =     15.81779  eV     1   --> A'             
     e( 25 - 25) =     16.49447  eV     1   --> A'             
     e( 26 - 26) =     16.80304  eV     1   --> A''            
     e( 27 - 27) =     18.01644  eV     1   --> A'             
     e( 28 - 28) =     18.86704  eV     1   --> A''            
     e( 29 - 29) =     18.99271  eV     1   --> A''            
     e( 30 - 30) =     19.75893  eV     1   --> A'             
     e( 31 - 31) =     20.38985  eV     1   --> A'             
     e( 32 - 32) =     20.82543  eV     1   --> A''            
     e( 33 - 33) =     23.55326  eV     1   --> A'             
     e( 34 - 34) =     25.89034  eV     1   --> A''            
     e( 35 - 35) =     26.79498  eV     1   --> A'             
     e( 36 - 36) =     27.11416  eV     1   --> A'             
     e( 37 - 37) =     27.97881  eV     1   --> A'             
     e( 38 - 38) =     28.59598  eV     1   --> A''            
     e( 39 - 39) =     28.94004  eV     1   --> A''            
     e( 40 - 40) =     29.02473  eV     1   --> A'             

 **************************************************************************

 **************************************************************************

                    xk=(   0.45666,   0.36372,   0.00000  )

     Band symmetry, C_s (m)     point group:

     e(  1 -  1) =    -44.21713  eV     1   --> A'             
     e(  2 -  2) =    -44.20734  eV     1   --> A''            
     e(  3 -  3) =    -20.60392  eV     1   --> A'             
     e(  4 -  4) =    -20.59137  eV     1   --> A'             
     e(  5 -  5) =    -20.57513  eV     1   --> A''            
     e(  6 -  6) =    -20.47349  eV     1   --> A'             
     e(  7 -  7) =    -20.46602  eV     1   --> A''            
     e(  8 -  8) =    -20.45820  eV     1   --> A''            
     e(  9 -  9) =     -0.78316  eV     1   --> A'             
     e( 10 - 10) =     -0.48665  eV     1   --> A'             
     e( 11 - 11) =      5.75136  eV     1   --> A'             
     e( 12 - 12) =      7.02720  eV     1   --> A'             
     e( 13 - 13) =      7.58601  eV     1   --> A''            
     e( 14 - 14) =      8.25698  eV     1   --> A''            
     e( 15 - 15) =      8.82232  eV     1   --> A'             
     e( 16 - 16) =      9.47887  eV     1   --> A'             
     e( 17 - 17) =     11.80871  eV     1   --> A'             
     e( 18 - 18) =     12.31248  eV     1   --> A''            
     e( 19 - 19) =     13.72807  eV     1   --> A''            
     e( 20 - 20) =     14.74883  eV     1   --> A'             
     e( 21 - 21) =     15.04425  eV     1   --> A''            
     e( 22 - 22) =     15.06901  eV     1   --> A'             
     e( 23 - 23) =     15.13741  eV     1   --> A''            
     e( 24 - 24) =     15.82695  eV     1   --> A'             
     e( 25 - 25) =     16.45930  eV     1   --> A'             
     e( 26 - 26) =     16.79622  eV     1   --> A''            
     e( 27 - 27) =     18.10358  eV     1   --> A'             
     e( 28 - 28) =     18.90715  eV     1   --> A''            
     e( 29 - 29) =     18.93176  eV     1   --> A''            
     e( 30 - 30) =     19.79896  eV     1   --> A'             
     e( 31 - 31) =     20.43153  eV     1   --> A'             
     e( 32 - 32) =     20.84754  eV     1   --> A''            
     e( 33 - 33) =     23.51068  eV     1   --> A'             
     e( 34 - 34) =     25.78485  eV     1   --> A''            
     e( 35 - 35) =     26.76170  eV     1   --> A'             
     e( 36 - 36) =     26.99583  eV     1   --> A'             
     e( 37 - 37) =     27.93533  eV     1   --> A'             
     e( 38 - 38) =     28.68857  eV     1   --> A''            
     e( 39 - 39) =     29.00211  eV     1   --> A''            
     e( 40 - 40) =     29.00525  eV     1   --> A'             

 **************************************************************************

 **************************************************************************

                    xk=(   0.45332,   0.36949,   0.00000  )

     Band symmetry, C_s (m)     point group:

     e(  1 -  1) =    -44.21708  eV     1   --> A'             
     e(  2 -  2) =    -44.20729  eV     1   --> A''            
     e(  3 -  3) =    -20.60328  eV     1   --> A'             
     e(  4 -  4) =    -20.59119  eV     1   --> A'             
     e(  5 -  5) =    -20.57451  eV     1   --> A''            
     e(  6 -  6) =    -20.47480  eV     1   --> A'             
     e(  7 -  7) =    -20.46595  eV     1   --> A''            
     e(  8 -  8) =    -20.45939  eV     1   --> A''            
     e(  9 -  9) =     -0.77684  eV     1   --> A'             
     e( 10 - 10) =     -0.48561  eV     1   --> A'             
     e( 11 - 11) =      5.76491  eV     1   --> A'             
     e( 12 - 12) =      7.02794  eV     1   --> A'             
     e( 13 - 13) =      7.59480  eV     1   --> A''            
     e( 14 - 14) =      8.25164  eV     1   --> A''            
     e( 15 - 15) =      8.80743  eV     1   --> A'             
     e( 16 - 16) =      9.40066  eV     1   --> A'             
     e( 17 - 17) =     11.86998  eV     1   --> A'             
     e( 18 - 18) =     12.32538  eV     1   --> A''            
     e( 19 - 19) =     13.72024  eV     1   --> A''            
     e( 20 - 20) =     14.72464  eV     1   --> A'             
     e( 21 - 21) =     15.04686  eV     1   --> A''            
     e( 22 - 22) =     15.05878  eV     1   --> A'             
     e( 23 - 23) =     15.13602  eV     1   --> A''            
     e( 24 - 24) =     15.83664  eV     1   --> A'             
     e( 25 - 25) =     16.42621  eV     1   --> A'             
     e( 26 - 26) =     16.78880  eV     1   --> A''            
     e( 27 - 27) =     18.19178  eV     1   --> A'             
     e( 28 - 28) =     18.86910  eV     1   --> A''            
     e( 29 - 29) =     18.94987  eV     1   --> A''            
     e( 30 - 30) =     19.84224  eV     1   --> A'             
     e( 31 - 31) =     20.47643  eV     1   --> A'             
     e( 32 - 32) =     20.86898  eV     1   --> A''            
     e( 33 - 33) =     23.46575  eV     1   --> A'             
     e( 34 - 34) =     25.67888  eV     1   --> A''            
     e( 35 - 35) =     26.72215  eV     1   --> A'             
     e( 36 - 36) =     26.87790  eV     1   --> A'             
     e( 37 - 37) =     27.89597  eV     1   --> A'             
     e( 38 - 38) =     28.78075  eV     1   --> A''            
     e( 39 - 39) =     28.98178  eV     1   --> A'             
     e( 40 - 40) =     29.06836  eV     1   --> A''            

 **************************************************************************

 **************************************************************************

                    xk=(   0.44999,   0.37526,   0.00000  )

     Band symmetry, C_s (m)     point group:

     e(  1 -  1) =    -44.21703  eV     1   --> A'             
     e(  2 -  2) =    -44.20725  eV     1   --> A''            
     e(  3 -  3) =    -20.60260  eV     1   --> A'             
     e(  4 -  4) =    -20.59100  eV     1   --> A'             
     e(  5 -  5) =    -20.57385  eV     1   --> A''            
     e(  6 -  6) =    -20.47620  eV     1   --> A'             
     e(  7 -  7) =    -20.46588  eV     1   --> A''            
     e(  8 -  8) =    -20.46067  eV     1   --> A''            
     e(  9 -  9) =     -0.77013  eV     1   --> A'             
     e( 10 - 10) =     -0.48452  eV     1   --> A'             
     e( 11 - 11) =      5.77943  eV     1   --> A'             
     e( 12 - 12) =      7.02871  eV     1   --> A'             
     e( 13 - 13) =      7.60414  eV     1   --> A''            
     e( 14 - 14) =      8.24598  eV     1   --> A''            
     e( 15 - 15) =      8.79177  eV     1   --> A'             
     e( 16 - 16) =      9.32149  eV     1   --> A'             
     e( 17 - 17) =     11.93142  eV     1   --> A'             
     e( 18 - 18) =     12.33914  eV     1   --> A''            
     e( 19 - 19) =     13.71155  eV     1   --> A''            
     e( 20 - 20) =     14.69940  eV     1   --> A'             
     e( 21 - 21) =     15.04757  eV     1   --> A'             
     e( 22 - 22) =     15.05043  eV     1   --> A''            
     e( 23 - 23) =     15.13451  eV     1   --> A''            
     e( 24 - 24) =     15.84681  eV     1   --> A'             
     e( 25 - 25) =     16.39510  eV     1   --> A'             
     e( 26 - 26) =     16.78078  eV     1   --> A''            
     e( 27 - 27) =     18.28089  eV     1   --> A'             
     e( 28 - 28) =     18.80503  eV     1   --> A''            
     e( 29 - 29) =     18.99510  eV     1   --> A''            
     e( 30 - 30) =     19.88876  eV     1   --> A'             
     e( 31 - 31) =     20.52447  eV     1   --> A'             
     e( 32 - 32) =     20.88958  eV     1   --> A''            
     e( 33 - 33) =     23.41863  eV     1   --> A'             
     e( 34 - 34) =     25.57259  eV     1   --> A''            
     e( 35 - 35) =     26.67606  eV     1   --> A'             
     e( 36 - 36) =     26.76042  eV     1   --> A'             
     e( 37 - 37) =     27.86112  eV     1   --> A'             
     e( 38 - 38) =     28.87218  eV     1   --> A''            
     e( 39 - 39) =     28.95447  eV     1   --> A'             
     e( 40 - 40) =     29.13860  eV     1   --> A''            

 **************************************************************************

 **************************************************************************

                    xk=(   0.44666,   0.38103,   0.00000  )

     Band symmetry, C_s (m)     point group:

     e(  1 -  1) =    -44.21698  eV     1   --> A'             
     e(  2 -  2) =    -44.20719  eV     1   --> A''            
     e(  3 -  3) =    -20.60189  eV     1   --> A'             
     e(  4 -  4) =    -20.59079  eV     1   --> A'             
     e(  5 -  5) =    -20.57313  eV     1   --> A''            
     e(  6 -  6) =    -20.47767  eV     1   --> A'             
     e(  7 -  7) =    -20.46580  eV     1   --> A''            
     e(  8 -  8) =    -20.46201  eV     1   --> A''            
     e(  9 -  9) =     -0.76303  eV     1   --> A'             
     e( 10 - 10) =     -0.48338  eV     1   --> A'             
     e( 11 - 11) =      5.79492  eV     1   --> A'             
     e( 12 - 12) =      7.02951  eV     1   --> A'             
     e( 13 - 13) =      7.61401  eV     1   --> A''            
     e( 14 - 14) =      8.24003  eV     1   --> A''            
     e( 15 - 15) =      8.77539  eV     1   --> A'             
     e( 16 - 16) =      9.24159  eV     1   --> A'             
     e( 17 - 17) =     11.99289  eV     1   --> A'             
     e( 18 - 18) =     12.35377  eV     1   --> A''            
     e( 19 - 19) =     13.70197  eV     1   --> A''            
     e( 20 - 20) =     14.67323  eV     1   --> A'             
     e( 21 - 21) =     15.03538  eV     1   --> A'             
     e( 22 - 22) =     15.05509  eV     1   --> A''            
     e( 23 - 23) =     15.13288  eV     1   --> A''            
     e( 24 - 24) =     15.85740  eV     1   --> A'             
     e( 25 - 25) =     16.36591  eV     1   --> A'             
     e( 26 - 26) =     16.77214  eV     1   --> A''            
     e( 27 - 27) =     18.37077  eV     1   --> A'             
     e( 28 - 28) =     18.73986  eV     1   --> A''            
     e( 29 - 29) =     19.04273  eV     1   --> A''            
     e( 30 - 30) =     19.93859  eV     1   --> A'             
     e( 31 - 31) =     20.57564  eV     1   --> A'             
     e( 32 - 32) =     20.90926  eV     1   --> A''            
     e( 33 - 33) =     23.36951  eV     1   --> A'             
     e( 34 - 34) =     25.46614  eV     1   --> A''            
     e( 35 - 35) =     26.62339  eV     1   --> A'             
     e( 36 - 36) =     26.64344  eV     1   --> A'             
     e( 37 - 37) =     27.83104  eV     1   --> A'             
     e( 38 - 38) =     28.92378  eV     1   --> A'             
     e( 39 - 39) =     28.96279  eV     1   --> A''            
     e( 40 - 40) =     29.21264  eV     1   --> A''            

 **************************************************************************

 **************************************************************************

                    xk=(   0.44332,   0.38681,   0.00000  )

     Band symmetry, C_s (m)     point group:

     e(  1 -  1) =    -44.21692  eV     1   --> A'             
     e(  2 -  2) =    -44.20713  eV     1   --> A''            
     e(  3 -  3) =    -20.60114  eV     1   --> A'             
     e(  4 -  4) =    -20.59056  eV     1   --> A'             
     e(  5 -  5) =    -20.57237  eV     1   --> A''            
     e(  6 -  6) =    -20.47922  eV     1   --> A'             
     e(  7 -  7) =    -20.46572  eV     1   --> A''            
     e(  8 -  8) =    -20.46343  eV     1   --> A''            
     e(  9 -  9) =     -0.75556  eV     1   --> A'             
     e( 10 - 10) =     -0.48221  eV     1   --> A'             
     e( 11 - 11) =      5.81138  eV     1   --> A'             
     e( 12 - 12) =      7.03031  eV     1   --> A'             
     e( 13 - 13) =      7.62438  eV     1   --> A''            
     e( 14 - 14) =      8.23381  eV     1   --> A''            
     e( 15 - 15) =      8.75835  eV     1   --> A'             
     e( 16 - 16) =      9.16115  eV     1   --> A'             
     e( 17 - 17) =     12.05432  eV     1   --> A'             
     e( 18 - 18) =     12.36923  eV     1   --> A''            
     e( 19 - 19) =     13.69148  eV     1   --> A''            
     e( 20 - 20) =     14.64626  eV     1   --> A'             
     e( 21 - 21) =     15.02218  eV     1   --> A'             
     e( 22 - 22) =     15.06091  eV     1   --> A''            
     e( 23 - 23) =     15.13112  eV     1   --> A''            
     e( 24 - 24) =     15.86833  eV     1   --> A'             
     e( 25 - 25) =     16.33855  eV     1   --> A'             
     e( 26 - 26) =     16.76285  eV     1   --> A''            
     e( 27 - 27) =     18.46125  eV     1   --> A'             
     e( 28 - 28) =     18.67385  eV     1   --> A''            
     e( 29 - 29) =     19.09264  eV     1   --> A''            
     e( 30 - 30) =     19.99173  eV     1   --> A'             
     e( 31 - 31) =     20.62987  eV     1   --> A'             
     e( 32 - 32) =     20.92790  eV     1   --> A''            
     e( 33 - 33) =     23.31856  eV     1   --> A'             
     e( 34 - 34) =     25.35965  eV     1   --> A''            
     e( 35 - 35) =     26.52700  eV     1   --> A'             
     e( 36 - 36) =     26.56427  eV     1   --> A'             
     e( 37 - 37) =     27.80567  eV     1   --> A'             
     e( 38 - 38) =     28.88996  eV     1   --> A'             
     e( 39 - 39) =     29.05243  eV     1   --> A''            
     e( 40 - 40) =     29.29026  eV     1   --> A''            

 **************************************************************************

 **************************************************************************

                    xk=(   0.43999,   0.39258,   0.00000  )

     Band symmetry, C_s (m)     point group:

     e(  1 -  1) =    -44.21685  eV     1   --> A'             
     e(  2 -  2) =    -44.20708  eV     1   --> A''            
     e(  3 -  3) =    -20.60036  eV     1   --> A'             
     e(  4 -  4) =    -20.59031  eV     1   --> A'             
     e(  5 -  5) =    -20.57158  eV     1   --> A''            
     e(  6 -  6) =    -20.48085  eV     1   --> A'             
     e(  7 -  7) =    -20.46564  eV     1   --> A''            
     e(  8 -  8) =    -20.46492  eV     1   --> A''            
     e(  9 -  9) =     -0.74775  eV     1   --> A'             
     e( 10 - 10) =     -0.48101  eV     1   --> A'             
     e( 11 - 11) =      5.82878  eV     1   --> A'             
     e( 12 - 12) =      7.03112  eV     1   --> A'             
     e( 13 - 13) =      7.63523  eV     1   --> A''            
     e( 14 - 14) =      8.22732  eV     1   --> A''            
     e( 15 - 15) =      8.74074  eV     1   --> A'             
     e( 16 - 16) =      9.08032  eV     1   --> A'             
     e( 17 - 17) =     12.11562  eV     1   --> A'             
     e( 18 - 18) =     12.38548  eV     1   --> A''            
     e( 19 - 19) =     13.68008  eV     1   --> A''            
     e( 20 - 20) =     14.61861  eV     1   --> A'             
     e( 21 - 21) =     15.00798  eV     1   --> A'             
     e( 22 - 22) =     15.06798  eV     1   --> A''            
     e( 23 - 23) =     15.12924  eV     1   --> A''            
     e( 24 - 24) =     15.87954  eV     1   --> A'             
     e( 25 - 25) =     16.31295  eV     1   --> A'             
     e( 26 - 26) =     16.75291  eV     1   --> A''            
     e( 27 - 27) =     18.55220  eV     1   --> A'             
     e( 28 - 28) =     18.60723  eV     1   --> A''            
     e( 29 - 29) =     19.14471  eV     1   --> A''            
     e( 30 - 30) =     20.04819  eV     1   --> A'             
     e( 31 - 31) =     20.68708  eV     1   --> A'             
     e( 32 - 32) =     20.94541  eV     1   --> A''            
     e( 33 - 33) =     23.26595  eV     1   --> A'             
     e( 34 - 34) =     25.25321  eV     1   --> A''            
     e( 35 - 35) =     26.41114  eV     1   --> A'             
     e( 36 - 36) =     26.49905  eV     1   --> A'             
     e( 37 - 37) =     27.78476  eV     1   --> A'             
     e( 38 - 38) =     28.85337  eV     1   --> A'             
     e( 39 - 39) =     29.14094  eV     1   --> A''            
     e( 40 - 40) =     29.37124  eV     1   --> A''            

 **************************************************************************

 **************************************************************************

                    xk=(   0.43665,   0.39835,   0.00000  )

     Band symmetry, C_s (m)     point group:

     e(  1 -  1) =    -44.21679  eV     1   --> A'             
     e(  2 -  2) =    -44.20702  eV     1   --> A''            
     e(  3 -  3) =    -20.59956  eV     1   --> A'             
     e(  4 -  4) =    -20.59002  eV     1   --> A'             
     e(  5 -  5) =    -20.57073  eV     1   --> A''            
     e(  6 -  6) =    -20.48255  eV     1   --> A'             
     e(  7 -  7) =    -20.46648  eV     1   --> A''            
     e(  8 -  8) =    -20.46556  eV     1   --> A''            
     e(  9 -  9) =     -0.73960  eV     1   --> A'             
     e( 10 - 10) =     -0.47979  eV     1   --> A'             
     e( 11 - 11) =      5.84714  eV     1   --> A'             
     e( 12 - 12) =      7.03193  eV     1   --> A'             
     e( 13 - 13) =      7.64653  eV     1   --> A''            
     e( 14 - 14) =      8.22059  eV     1   --> A''            
     e( 15 - 15) =      8.72261  eV     1   --> A'             
     e( 16 - 16) =      8.99926  eV     1   --> A'             
     e( 17 - 17) =     12.17674  eV     1   --> A'             
     e( 18 - 18) =     12.40253  eV     1   --> A''            
     e( 19 - 19) =     13.66776  eV     1   --> A''            
     e( 20 - 20) =     14.59040  eV     1   --> A'             
     e( 21 - 21) =     14.99276  eV     1   --> A'             
     e( 22 - 22) =     15.07636  eV     1   --> A''            
     e( 23 - 23) =     15.12722  eV     1   --> A''            
     e( 24 - 24) =     15.89096  eV     1   --> A'             
     e( 25 - 25) =     16.28902  eV     1   --> A'             
     e( 26 - 26) =     16.74228  eV     1   --> A''            
     e( 27 - 27) =     18.54029  eV     1   --> A''            
     e( 28 - 28) =     18.64344  eV     1   --> A'             
     e( 29 - 29) =     19.19884  eV     1   --> A''            
     e( 30 - 30) =     20.10801  eV     1   --> A'             
     e( 31 - 31) =     20.74720  eV     1   --> A'             
     e( 32 - 32) =     20.96175  eV     1   --> A''            
     e( 33 - 33) =     23.21184  eV     1   --> A'             
     e( 34 - 34) =     25.14696  eV     1   --> A''            
     e( 35 - 35) =     26.29590  eV     1   --> A'             
     e( 36 - 36) =     26.42817  eV     1   --> A'             
     e( 37 - 37) =     27.76793  eV     1   --> A'             
     e( 38 - 38) =     28.81438  eV     1   --> A'             
     e( 39 - 39) =     29.22833  eV     1   --> A''            
     e( 40 - 40) =     29.45534  eV     1   --> A''            

 **************************************************************************

 **************************************************************************

                    xk=(   0.43332,   0.40412,   0.00000  )

     Band symmetry, C_s (m)     point group:

     e(  1 -  1) =    -44.21671  eV     1   --> A'             
     e(  2 -  2) =    -44.20695  eV     1   --> A''            
     e(  3 -  3) =    -20.59874  eV     1   --> A'             
     e(  4 -  4) =    -20.58970  eV     1   --> A'             
     e(  5 -  5) =    -20.56985  eV     1   --> A''            
     e(  6 -  6) =    -20.48430  eV     1   --> A'             
     e(  7 -  7) =    -20.46810  eV     1   --> A''            
     e(  8 -  8) =    -20.46546  eV     1   --> A''            
     e(  9 -  9) =     -0.73114  eV     1   --> A'             
     e( 10 - 10) =     -0.47854  eV     1   --> A'             
     e( 11 - 11) =      5.86644  eV     1   --> A'             
     e( 12 - 12) =      7.03273  eV     1   --> A'             
     e( 13 - 13) =      7.65826  eV     1   --> A''            
     e( 14 - 14) =      8.21363  eV     1   --> A''            
     e( 15 - 15) =      8.70405  eV     1   --> A'             
     e( 16 - 16) =      8.91811  eV     1   --> A'             
     e( 17 - 17) =     12.23766  eV     1   --> A'             
     e( 18 - 18) =     12.42035  eV     1   --> A''            
     e( 19 - 19) =     13.65453  eV     1   --> A''            
     e( 20 - 20) =     14.56177  eV     1   --> A'             
     e( 21 - 21) =     14.97654  eV     1   --> A'             
     e( 22 - 22) =     15.08613  eV     1   --> A''            
     e( 23 - 23) =     15.12507  eV     1   --> A''            
     e( 24 - 24) =     15.90254  eV     1   --> A'             
     e( 25 - 25) =     16.26670  eV     1   --> A'             
     e( 26 - 26) =     16.73095  eV     1   --> A''            
     e( 27 - 27) =     18.47324  eV     1   --> A''            
     e( 28 - 28) =     18.73484  eV     1   --> A'             
     e( 29 - 29) =     19.25490  eV     1   --> A''            
     e( 30 - 30) =     20.17122  eV     1   --> A'             
     e( 31 - 31) =     20.81014  eV     1   --> A'             
     e( 32 - 32) =     20.97690  eV     1   --> A''            
     e( 33 - 33) =     23.15641  eV     1   --> A'             
     e( 34 - 34) =     25.04099  eV     1   --> A''            
     e( 35 - 35) =     26.18136  eV     1   --> A'             
     e( 36 - 36) =     26.35228  eV     1   --> A'             
     e( 37 - 37) =     27.75474  eV     1   --> A'             
     e( 38 - 38) =     28.77340  eV     1   --> A'             
     e( 39 - 39) =     29.31453  eV     1   --> A''            
     e( 40 - 40) =     29.54230  eV     1   --> A''            

 **************************************************************************

 **************************************************************************

                    xk=(   0.42999,   0.40989,   0.00000  )

     Band symmetry, C_s (m)     point group:

     e(  1 -  1) =    -44.21664  eV     1   --> A'             
     e(  2 -  2) =    -44.20689  eV     1   --> A''            
     e(  3 -  3) =    -20.59792  eV     1   --> A'             
     e(  4 -  4) =    -20.58934  eV     1   --> A'             
     e(  5 -  5) =    -20.56892  eV     1   --> A''            
     e(  6 -  6) =    -20.48614  eV     1   --> A'             
     e(  7 -  7) =    -20.46978  eV     1   --> A''            
     e(  8 -  8) =    -20.46537  eV     1   --> A''            
     e(  9 -  9) =     -0.72240  eV     1   --> A'             
     e( 10 - 10) =     -0.47728  eV     1   --> A'             
     e( 11 - 11) =      5.88666  eV     1   --> A'             
     e( 12 - 12) =      7.03352  eV     1   --> A'             
     e( 13 - 13) =      7.67037  eV     1   --> A''            
     e( 14 - 14) =      8.20648  eV     1   --> A''            
     e( 15 - 15) =      8.68512  eV     1   --> A'             
     e( 16 - 16) =      8.83697  eV     1   --> A'             
     e( 17 - 17) =     12.29833  eV     1   --> A'             
     e( 18 - 18) =     12.43888  eV     1   --> A''            
     e( 19 - 19) =     13.64042  eV     1   --> A''            
     e( 20 - 20) =     14.53277  eV     1   --> A'             
     e( 21 - 21) =     14.95931  eV     1   --> A'             
     e( 22 - 22) =     15.09731  eV     1   --> A''            
     e( 23 - 23) =     15.12278  eV     1   --> A''            
     e( 24 - 24) =     15.91418  eV     1   --> A'             
     e( 25 - 25) =     16.24589  eV     1   --> A'             
     e( 26 - 26) =     16.71889  eV     1   --> A''            
     e( 27 - 27) =     18.40628  eV     1   --> A''            
     e( 28 - 28) =     18.82622  eV     1   --> A'             
     e( 29 - 29) =     19.31279  eV     1   --> A''            
     e( 30 - 30) =     20.23780  eV     1   --> A'             
     e( 31 - 31) =     20.87578  eV     1   --> A'             
     e( 32 - 32) =     20.99081  eV     1   --> A''            
     e( 33 - 33) =     23.09978  eV     1   --> A'             
     e( 34 - 34) =     24.93535  eV     1   --> A''            
     e( 35 - 35) =     26.06748  eV     1   --> A'             
     e( 36 - 36) =     26.27177  eV     1   --> A'             
     e( 37 - 37) =     27.74467  eV     1   --> A'             
     e( 38 - 38) =     28.73065  eV     1   --> A'             
     e( 39 - 39) =     29.39938  eV     1   --> A''            
     e( 40 - 40) =     29.63180  eV     1   --> A''            

 **************************************************************************

 **************************************************************************

                    xk=(   0.42665,   0.41567,   0.00000  )

     Band symmetry, C_s (m)     point group:

     e(  1 -  1) =    -44.21657  eV     1   --> A'             
     e(  2 -  2) =    -44.20682  eV     1   --> A''            
     e(  3 -  3) =    -20.59710  eV     1   --> A'             
     e(  4 -  4) =    -20.58892  eV     1   --> A'             
     e(  5 -  5) =    -20.56796  eV     1   --> A''            
     e(  6 -  6) =    -20.48803  eV     1   --> A'             
     e(  7 -  7) =    -20.47151  eV     1   --> A''            
     e(  8 -  8) =    -20.46528  eV     1   --> A''            
     e(  9 -  9) =     -0.71338  eV     1   --> A'             
     e( 10 - 10) =     -0.47603  eV     1   --> A'             
     e( 11 - 11) =      5.90781  eV     1   --> A'             
     e( 12 - 12) =      7.03428  eV     1   --> A'             
     e( 13 - 13) =      7.68285  eV     1   --> A''            
     e( 14 - 14) =      8.19914  eV     1   --> A''            
     e( 15 - 15) =      8.66591  eV     1   --> A'             
     e( 16 - 16) =      8.75598  eV     1   --> A'             
     e( 17 - 17) =     12.35876  eV     1   --> A'             
     e( 18 - 18) =     12.45811  eV     1   --> A''            
     e( 19 - 19) =     13.62544  eV     1   --> A''            
     e( 20 - 20) =     14.50353  eV     1   --> A'             
     e( 21 - 21) =     14.94109  eV     1   --> A'             
     e( 22 - 22) =     15.10993  eV     1   --> A''            
     e( 23 - 23) =     15.12035  eV     1   --> A''            
     e( 24 - 24) =     15.92583  eV     1   --> A'             
     e( 25 - 25) =     16.22653  eV     1   --> A'             
     e( 26 - 26) =     16.70605  eV     1   --> A''            
     e( 27 - 27) =     18.33963  eV     1   --> A''            
     e( 28 - 28) =     18.91744  eV     1   --> A'             
     e( 29 - 29) =     19.37238  eV     1   --> A''            
     e( 30 - 30) =     20.30779  eV     1   --> A'             
     e( 31 - 31) =     20.94400  eV     1   --> A'             
     e( 32 - 32) =     21.00348  eV     1   --> A''            
     e( 33 - 33) =     23.04213  eV     1   --> A'             
     e( 34 - 34) =     24.83016  eV     1   --> A''            
     e( 35 - 35) =     25.95433  eV     1   --> A'             
     e( 36 - 36) =     26.18729  eV     1   --> A'             
     e( 37 - 37) =     27.73725  eV     1   --> A'             
     e( 38 - 38) =     28.68655  eV     1   --> A'             
     e( 39 - 39) =     29.48285  eV     1   --> A''            
     e( 40 - 40) =     29.72354  eV     1   --> A''            

 **************************************************************************

 **************************************************************************

                    xk=(   0.42332,   0.42144,   0.00000  )

     Band symmetry, C_s (m)     point group:

     e(  1 -  1) =    -44.21650  eV     1   --> A'             
     e(  2 -  2) =    -44.20675  eV     1   --> A''            
     e(  3 -  3) =    -20.59630  eV     1   --> A'             
     e(  4 -  4) =    -20.58844  eV     1   --> A'             
     e(  5 -  5) =    -20.56695  eV     1   --> A''            
     e(  6 -  6) =    -20.48999  eV     1   --> A'             
     e(  7 -  7) =    -20.47330  eV     1   --> A''            
     e(  8 -  8) =    -20.46519  eV     1   --> A''            
     e(  9 -  9) =     -0.70411  eV     1   --> A'             
     e( 10 - 10) =     -0.47478  eV     1   --> A'             
     e( 11 - 11) =      5.92986  eV     1   --> A'             
     e( 12 - 12) =      7.03500  eV     1   --> A'             
     e( 13 - 13) =      7.69565  eV     1   --> A''            
     e( 14 - 14) =      8.19164  eV     1   --> A''            
     e( 15 - 15) =      8.64648  eV     1   --> A'             
     e( 16 - 16) =      8.67525  eV     1   --> A'             
     e( 17 - 17) =     12.41892  eV     1   --> A'             
     e( 18 - 18) =     12.47801  eV     1   --> A''            
     e( 19 - 19) =     13.60964  eV     1   --> A''            
     e( 20 - 20) =     14.47416  eV     1   --> A'             
     e( 21 - 21) =     14.92188  eV     1   --> A'             
     e( 22 - 22) =     15.11779  eV     1   --> A''            
     e( 23 - 23) =     15.12402  eV     1   --> A''            
     e( 24 - 24) =     15.93742  eV     1   --> A'             
     e( 25 - 25) =     16.20856  eV     1   --> A'             
     e( 26 - 26) =     16.69241  eV     1   --> A''            
     e( 27 - 27) =     18.27351  eV     1   --> A''            
     e( 28 - 28) =     19.00836  eV     1   --> A'             
     e( 29 - 29) =     19.43356  eV     1   --> A''            
     e( 30 - 30) =     20.38116  eV     1   --> A'             
     e( 31 - 31) =     21.01467  eV     1   --> A'             
     e( 32 - 32) =     21.01492  eV     1   --> A''            
     e( 33 - 33) =     22.98360  eV     1   --> A'             
     e( 34 - 34) =     24.72548  eV     1   --> A''            
     e( 35 - 35) =     25.84195  eV     1   --> A'             
     e( 36 - 36) =     26.09938  eV     1   --> A'             
     e( 37 - 37) =     27.73202  eV     1   --> A'             
     e( 38 - 38) =     28.64145  eV     1   --> A'             
     e( 39 - 39) =     29.56491  eV     1   --> A''            
     e( 40 - 40) =     29.81716  eV     1   --> A''            

 **************************************************************************

 **************************************************************************

                    xk=(   0.41998,   0.42721,   0.00000  )

     Band symmetry, C_s (m)     point group:

     e(  1 -  1) =    -44.21644  eV     1   --> A'             
     e(  2 -  2) =    -44.20668  eV     1   --> A''            
     e(  3 -  3) =    -20.59553  eV     1   --> A'             
     e(  4 -  4) =    -20.58790  eV     1   --> A'             
     e(  5 -  5) =    -20.56591  eV     1   --> A''            
     e(  6 -  6) =    -20.49200  eV     1   --> A'             
     e(  7 -  7) =    -20.47514  eV     1   --> A''            
     e(  8 -  8) =    -20.46509  eV     1   --> A''            
     e(  9 -  9) =     -0.69463  eV     1   --> A'             
     e( 10 - 10) =     -0.47355  eV     1   --> A'             
     e( 11 - 11) =      5.95281  eV     1   --> A'             
     e( 12 - 12) =      7.03568  eV     1   --> A'             
     e( 13 - 13) =      7.70875  eV     1   --> A''            
     e( 14 - 14) =      8.18400  eV     1   --> A''            
     e( 15 - 15) =      8.59486  eV     1   --> A'             
     e( 16 - 16) =      8.62693  eV     1   --> A'             
     e( 17 - 17) =     12.47882  eV     1   --> A'             
     e( 18 - 18) =     12.49853  eV     1   --> A''            
     e( 19 - 19) =     13.59306  eV     1   --> A''            
     e( 20 - 20) =     14.44474  eV     1   --> A'             
     e( 21 - 21) =     14.90170  eV     1   --> A'             
     e( 22 - 22) =     15.11509  eV     1   --> A''            
     e( 23 - 23) =     15.13958  eV     1   --> A''            
     e( 24 - 24) =     15.94888  eV     1   --> A'             
     e( 25 - 25) =     16.19190  eV     1   --> A'             
     e( 26 - 26) =     16.67793  eV     1   --> A''            
     e( 27 - 27) =     18.20810  eV     1   --> A''            
     e( 28 - 28) =     19.09885  eV     1   --> A'             
     e( 29 - 29) =     19.49622  eV     1   --> A''            
     e( 30 - 30) =     20.45791  eV     1   --> A'             
     e( 31 - 31) =     21.02514  eV     1   --> A''            
     e( 32 - 32) =     21.08762  eV     1   --> A'             
     e( 33 - 33) =     22.92437  eV     1   --> A'             
     e( 34 - 34) =     24.62140  eV     1   --> A''            
     e( 35 - 35) =     25.73037  eV     1   --> A'             
     e( 36 - 36) =     26.00852  eV     1   --> A'             
     e( 37 - 37) =     27.72853  eV     1   --> A'             
     e( 38 - 38) =     28.59565  eV     1   --> A'             
     e( 39 - 39) =     29.64548  eV     1   --> A''            
     e( 40 - 40) =     29.77697  eV     1   --> A'             

 **************************************************************************

 **************************************************************************

                    xk=(   0.41665,   0.43298,   0.00000  )

     Band symmetry, C_s (m)     point group:

     e(  1 -  1) =    -44.21637  eV     1   --> A'             
     e(  2 -  2) =    -44.20661  eV     1   --> A''            
     e(  3 -  3) =    -20.59480  eV     1   --> A'             
     e(  4 -  4) =    -20.58726  eV     1   --> A'             
     e(  5 -  5) =    -20.56483  eV     1   --> A''            
     e(  6 -  6) =    -20.49406  eV     1   --> A'             
     e(  7 -  7) =    -20.47703  eV     1   --> A''            
     e(  8 -  8) =    -20.46499  eV     1   --> A''            
     e(  9 -  9) =     -0.68495  eV     1   --> A'             
     e( 10 - 10) =     -0.47234  eV     1   --> A'             
     e( 11 - 11) =      5.97664  eV     1   --> A'             
     e( 12 - 12) =      7.03631  eV     1   --> A'             
     e( 13 - 13) =      7.72211  eV     1   --> A''            
     e( 14 - 14) =      8.17623  eV     1   --> A''            
     e( 15 - 15) =      8.51492  eV     1   --> A'             
     e( 16 - 16) =      8.60731  eV     1   --> A'             
     e( 17 - 17) =     12.51964  eV     1   --> A''            
     e( 18 - 18) =     12.53845  eV     1   --> A'             
     e( 19 - 19) =     13.57575  eV     1   --> A''            
     e( 20 - 20) =     14.41535  eV     1   --> A'             
     e( 21 - 21) =     14.88056  eV     1   --> A'             
     e( 22 - 22) =     15.11226  eV     1   --> A''            
     e( 23 - 23) =     15.15660  eV     1   --> A''            
     e( 24 - 24) =     15.96016  eV     1   --> A'             
     e( 25 - 25) =     16.17650  eV     1   --> A'             
     e( 26 - 26) =     16.66256  eV     1   --> A''            
     e( 27 - 27) =     18.14363  eV     1   --> A''            
     e( 28 - 28) =     19.18880  eV     1   --> A'             
     e( 29 - 29) =     19.56023  eV     1   --> A''            
     e( 30 - 30) =     20.53798  eV     1   --> A'             
     e( 31 - 31) =     21.03415  eV     1   --> A''            
     e( 32 - 32) =     21.16264  eV     1   --> A'             
     e( 33 - 33) =     22.86462  eV     1   --> A'             
     e( 34 - 34) =     24.51802  eV     1   --> A''            
     e( 35 - 35) =     25.61965  eV     1   --> A'             
     e( 36 - 36) =     25.91520  eV     1   --> A'             
     e( 37 - 37) =     27.72644  eV     1   --> A'             
     e( 38 - 38) =     28.54952  eV     1   --> A'             
     e( 39 - 39) =     29.70272  eV     1   --> A'             
     e( 40 - 40) =     29.72455  eV     1   --> A''            

 **************************************************************************

 **************************************************************************

                    xk=(   0.41332,   0.43876,   0.00000  )

     Band symmetry, C_s (m)     point group:

     e(  1 -  1) =    -44.21630  eV     1   --> A'             
     e(  2 -  2) =    -44.20654  eV     1   --> A''            
     e(  3 -  3) =    -20.59413  eV     1   --> A'             
     e(  4 -  4) =    -20.58653  eV     1   --> A'             
     e(  5 -  5) =    -20.56371  eV     1   --> A''            
     e(  6 -  6) =    -20.49617  eV     1   --> A'             
     e(  7 -  7) =    -20.47896  eV     1   --> A''            
     e(  8 -  8) =    -20.46490  eV     1   --> A''            
     e(  9 -  9) =     -0.67510  eV     1   --> A'             
     e( 10 - 10) =     -0.47116  eV     1   --> A'             
     e( 11 - 11) =      6.00135  eV     1   --> A'             
     e( 12 - 12) =      7.03689  eV     1   --> A'             
     e( 13 - 13) =      7.73568  eV     1   --> A''            
     e( 14 - 14) =      8.16837  eV     1   --> A''            
     e( 15 - 15) =      8.43553  eV     1   --> A'             
     e( 16 - 16) =      8.58773  eV     1   --> A'             
     e( 17 - 17) =     12.54130  eV     1   --> A''            
     e( 18 - 18) =     12.59782  eV     1   --> A'             
     e( 19 - 19) =     13.55776  eV     1   --> A''            
     e( 20 - 20) =     14.38608  eV     1   --> A'             
     e( 21 - 21) =     14.85848  eV     1   --> A'             
     e( 22 - 22) =     15.10929  eV     1   --> A''            
     e( 23 - 23) =     15.17507  eV     1   --> A''            
     e( 24 - 24) =     15.97119  eV     1   --> A'             
     e( 25 - 25) =     16.16230  eV     1   --> A'             
     e( 26 - 26) =     16.64627  eV     1   --> A''            
     e( 27 - 27) =     18.08028  eV     1   --> A''            
     e( 28 - 28) =     19.27811  eV     1   --> A'             
     e( 29 - 29) =     19.62548  eV     1   --> A''            
     e( 30 - 30) =     20.62135  eV     1   --> A'             
     e( 31 - 31) =     21.04198  eV     1   --> A''            
     e( 32 - 32) =     21.23952  eV     1   --> A'             
     e( 33 - 33) =     22.80454  eV     1   --> A'             
     e( 34 - 34) =     24.41540  eV     1   --> A''            
     e( 35 - 35) =     25.50982  eV     1   --> A'             
     e( 36 - 36) =     25.81979  eV     1   --> A'             
     e( 37 - 37) =     27.72544  eV     1   --> A'             
     e( 38 - 38) =     28.50336  eV     1   --> A'             
     e( 39 - 39) =     29.62598  eV     1   --> A'             
     e( 40 - 40) =     29.80205  eV     1   --> A''            

 **************************************************************************

 **************************************************************************

                    xk=(   0.40998,   0.44453,   0.00000  )

     Band symmetry, C_s (m)     point group:

     e(  1 -  1) =    -44.21623  eV     1   --> A'             
     e(  2 -  2) =    -44.20645  eV     1   --> A''            
     e(  3 -  3) =    -20.59351  eV     1   --> A'             
     e(  4 -  4) =    -20.58569  eV     1   --> A'             
     e(  5 -  5) =    -20.56255  eV     1   --> A''            
     e(  6 -  6) =    -20.49833  eV     1   --> A'             
     e(  7 -  7) =    -20.48091  eV     1   --> A''            
     e(  8 -  8) =    -20.46481  eV     1   --> A''            
     e(  9 -  9) =     -0.66511  eV     1   --> A'             
[...]

                    xk=(   0.18669,   0.83143,   0.00000  )

     Band symmetry, C_s (m)     point group:

     e(  1 -  1) =    -44.22258  eV     1   --> A'             
     e(  2 -  2) =    -44.21257  eV     1   --> A''            
     e(  3 -  3) =    -20.60724  eV     1   --> A'             
     e(  4 -  4) =    -20.54445  eV     1   --> A'             
     e(  5 -  5) =    -20.52232  eV     1   --> A''            
     e(  6 -  6) =    -20.47363  eV     1   --> A''            
     e(  7 -  7) =    -20.46720  eV     1   --> A'             
     e(  8 -  8) =    -20.45196  eV     1   --> A''            
     e(  9 -  9) =     -1.28400  eV     1   --> A'             
     e( 10 - 10) =     -0.85372  eV     1   --> A'             
     e( 11 - 11) =      6.96725  eV     1   --> A''            
     e( 12 - 12) =      7.38230  eV     1   --> A'             
     e( 13 - 13) =      7.72074  eV     1   --> A'             
     e( 14 - 14) =      8.37282  eV     1   --> A''            
     e( 15 - 15) =      8.93966  eV     1   --> A'             
     e( 16 - 16) =      9.28016  eV     1   --> A'             
     e( 17 - 17) =     12.24084  eV     1   --> A'             
     e( 18 - 18) =     12.94901  eV     1   --> A''            
     e( 19 - 19) =     13.64951  eV     1   --> A''            
     e( 20 - 20) =     13.85698  eV     1   --> A'             
     e( 21 - 21) =     14.28057  eV     1   --> A''            
     e( 22 - 22) =     14.85747  eV     1   --> A'             
     e( 23 - 23) =     15.01448  eV     1   --> A''            
     e( 24 - 24) =     15.78111  eV     1   --> A'             
     e( 25 - 25) =     16.00048  eV     1   --> A''            
     e( 26 - 26) =     16.08869  eV     1   --> A'             
     e( 27 - 27) =     19.20525  eV     1   --> A'             
     e( 28 - 28) =     19.30036  eV     1   --> A''            
     e( 29 - 29) =     20.84516  eV     1   --> A''            
     e( 30 - 30) =     20.86623  eV     1   --> A'             
     e( 31 - 31) =     21.15184  eV     1   --> A'             
     e( 32 - 32) =     21.60579  eV     1   --> A'             
     e( 33 - 33) =     21.94635  eV     1   --> A''            
     e( 34 - 34) =     23.45966  eV     1   --> A'             
     e( 35 - 35) =     24.71307  eV     1   --> A'             
     e( 36 - 36) =     25.33006  eV     1   --> A''            
     e( 37 - 37) =     26.98561  eV     1   --> A'             
     e( 38 - 38) =     29.02752  eV     1   --> A'             
     e( 39 - 39) =     29.50180  eV     1   --> A''            
     e( 40 - 40) =     29.53007  eV     1   --> A''            

 **************************************************************************

 **************************************************************************

                    xk=(   0.18336,   0.83720,   0.00000  )

     Band symmetry, C_s (m)     point group:

     e(  1 -  1) =    -44.22290  eV     1   --> A'             
     e(  2 -  2) =    -44.21288  eV     1   --> A''            
     e(  3 -  3) =    -20.60805  eV     1   --> A'             
     e(  4 -  4) =    -20.54214  eV     1   --> A'             
     e(  5 -  5) =    -20.52018  eV     1   --> A''            
     e(  6 -  6) =    -20.47407  eV     1   --> A''            
     e(  7 -  7) =    -20.46567  eV     1   --> A'             
     e(  8 -  8) =    -20.45054  eV     1   --> A''            
     e(  9 -  9) =     -1.31693  eV     1   --> A'             
     e( 10 - 10) =     -0.86626  eV     1   --> A'             
     e( 11 - 11) =      6.92479  eV     1   --> A''            
     e( 12 - 12) =      7.44532  eV     1   --> A'             
     e( 13 - 13) =      7.75606  eV     1   --> A'             
     e( 14 - 14) =      8.39489  eV     1   --> A''            
     e( 15 - 15) =      8.97772  eV     1   --> A'             
     e( 16 - 16) =      9.32164  eV     1   --> A'             
     e( 17 - 17) =     12.20683  eV     1   --> A'             
     e( 18 - 18) =     12.95876  eV     1   --> A''            
     e( 19 - 19) =     13.65975  eV     1   --> A''            
     e( 20 - 20) =     13.86458  eV     1   --> A'             
     e( 21 - 21) =     14.25328  eV     1   --> A''            
     e( 22 - 22) =     14.82105  eV     1   --> A'             
     e( 23 - 23) =     15.00514  eV     1   --> A''            
     e( 24 - 24) =     15.79496  eV     1   --> A'             
     e( 25 - 25) =     15.95261  eV     1   --> A''            
     e( 26 - 26) =     16.07871  eV     1   --> A'             
     e( 27 - 27) =     19.18386  eV     1   --> A'             
     e( 28 - 28) =     19.36904  eV     1   --> A''            
     e( 29 - 29) =     20.85303  eV     1   --> A'             
     e( 30 - 30) =     20.90367  eV     1   --> A''            
     e( 31 - 31) =     21.12917  eV     1   --> A'             
     e( 32 - 32) =     21.56419  eV     1   --> A'             
     e( 33 - 33) =     22.01775  eV     1   --> A''            
     e( 34 - 34) =     23.44063  eV     1   --> A'             
     e( 35 - 35) =     24.67229  eV     1   --> A'             
     e( 36 - 36) =     25.36009  eV     1   --> A''            
     e( 37 - 37) =     26.90538  eV     1   --> A'             
     e( 38 - 38) =     28.98707  eV     1   --> A'             
     e( 39 - 39) =     29.43777  eV     1   --> A''            
     e( 40 - 40) =     29.48385  eV     1   --> A''            

 **************************************************************************

 **************************************************************************

                    xk=(   0.18003,   0.84298,   0.00000  )

     Band symmetry, C_s (m)     point group:

     e(  1 -  1) =    -44.22323  eV     1   --> A'             
     e(  2 -  2) =    -44.21320  eV     1   --> A''            
     e(  3 -  3) =    -20.60886  eV     1   --> A'             
     e(  4 -  4) =    -20.53975  eV     1   --> A'             
     e(  5 -  5) =    -20.51797  eV     1   --> A''            
     e(  6 -  6) =    -20.47451  eV     1   --> A''            
     e(  7 -  7) =    -20.46416  eV     1   --> A'             
     e(  8 -  8) =    -20.44914  eV     1   --> A''            
     e(  9 -  9) =     -1.34991  eV     1   --> A'             
     e( 10 - 10) =     -0.87882  eV     1   --> A'             
     e( 11 - 11) =      6.88225  eV     1   --> A''            
     e( 12 - 12) =      7.50991  eV     1   --> A'             
     e( 13 - 13) =      7.79210  eV     1   --> A'             
     e( 14 - 14) =      8.41752  eV     1   --> A''            
     e( 15 - 15) =      9.01482  eV     1   --> A'             
     e( 16 - 16) =      9.36384  eV     1   --> A'             
     e( 17 - 17) =     12.17336  eV     1   --> A'             
     e( 18 - 18) =     12.96880  eV     1   --> A''            
     e( 19 - 19) =     13.66829  eV     1   --> A''            
     e( 20 - 20) =     13.87177  eV     1   --> A'             
     e( 21 - 21) =     14.22788  eV     1   --> A''            
     e( 22 - 22) =     14.78390  eV     1   --> A'             
     e( 23 - 23) =     14.99565  eV     1   --> A''            
     e( 24 - 24) =     15.80936  eV     1   --> A'             
     e( 25 - 25) =     15.90385  eV     1   --> A''            
     e( 26 - 26) =     16.06868  eV     1   --> A'             
     e( 27 - 27) =     19.16248  eV     1   --> A'             
     e( 28 - 28) =     19.43787  eV     1   --> A''            
     e( 29 - 29) =     20.83601  eV     1   --> A'             
     e( 30 - 30) =     20.96422  eV     1   --> A''            
     e( 31 - 31) =     21.10695  eV     1   --> A'             
     e( 32 - 32) =     21.52812  eV     1   --> A'             
     e( 33 - 33) =     22.09151  eV     1   --> A''            
     e( 34 - 34) =     23.42155  eV     1   --> A'             
     e( 35 - 35) =     24.62508  eV     1   --> A'             
     e( 36 - 36) =     25.38683  eV     1   --> A''            
     e( 37 - 37) =     26.82337  eV     1   --> A'             
     e( 38 - 38) =     28.95378  eV     1   --> A'             
     e( 39 - 39) =     29.37377  eV     1   --> A''            
     e( 40 - 40) =     29.43652  eV     1   --> A''            

 **************************************************************************

 **************************************************************************

                    xk=(   0.17670,   0.84876,   0.00000  )

     Band symmetry, C_s (m)     point group:

     e(  1 -  1) =    -44.22357  eV     1   --> A'             
     e(  2 -  2) =    -44.21353  eV     1   --> A''            
     e(  3 -  3) =    -20.60969  eV     1   --> A'             
     e(  4 -  4) =    -20.53730  eV     1   --> A'             
     e(  5 -  5) =    -20.51571  eV     1   --> A''            
     e(  6 -  6) =    -20.47496  eV     1   --> A''            
     e(  7 -  7) =    -20.46268  eV     1   --> A'             
     e(  8 -  8) =    -20.44777  eV     1   --> A''            
     e(  9 -  9) =     -1.38292  eV     1   --> A'             
     e( 10 - 10) =     -0.89138  eV     1   --> A'             
     e( 11 - 11) =      6.83968  eV     1   --> A''            
     e( 12 - 12) =      7.57599  eV     1   --> A'             
     e( 13 - 13) =      7.82882  eV     1   --> A'             
     e( 14 - 14) =      8.44071  eV     1   --> A''            
     e( 15 - 15) =      9.05095  eV     1   --> A'             
     e( 16 - 16) =      9.40673  eV     1   --> A'             
     e( 17 - 17) =     12.14043  eV     1   --> A'             
     e( 18 - 18) =     12.97909  eV     1   --> A''            
     e( 19 - 19) =     13.67479  eV     1   --> A''            
     e( 20 - 20) =     13.87849  eV     1   --> A'             
     e( 21 - 21) =     14.20471  eV     1   --> A''            
     e( 22 - 22) =     14.74618  eV     1   --> A'             
     e( 23 - 23) =     14.98602  eV     1   --> A''            
     e( 24 - 24) =     15.82428  eV     1   --> A'             
     e( 25 - 25) =     15.85433  eV     1   --> A''            
     e( 26 - 26) =     16.05870  eV     1   --> A'             
     e( 27 - 27) =     19.14098  eV     1   --> A'             
     e( 28 - 28) =     19.50687  eV     1   --> A''            
     e( 29 - 29) =     20.81407  eV     1   --> A'             
     e( 30 - 30) =     21.02667  eV     1   --> A''            
     e( 31 - 31) =     21.08514  eV     1   --> A'             
     e( 32 - 32) =     21.49871  eV     1   --> A'             
     e( 33 - 33) =     22.16753  eV     1   --> A''            
     e( 34 - 34) =     23.40242  eV     1   --> A'             
     e( 35 - 35) =     24.57165  eV     1   --> A'             
     e( 36 - 36) =     25.41027  eV     1   --> A''            
     e( 37 - 37) =     26.74001  eV     1   --> A'             
     e( 38 - 38) =     28.92726  eV     1   --> A'             
     e( 39 - 39) =     29.30983  eV     1   --> A''            
     e( 40 - 40) =     29.38801  eV     1   --> A''            

 **************************************************************************

 **************************************************************************

                    xk=(   0.17336,   0.85453,   0.00000  )

     Band symmetry, C_s (m)     point group:

     e(  1 -  1) =    -44.22390  eV     1   --> A'             
     e(  2 -  2) =    -44.21384  eV     1   --> A''            
     e(  3 -  3) =    -20.61051  eV     1   --> A'             
     e(  4 -  4) =    -20.53479  eV     1   --> A'             
     e(  5 -  5) =    -20.51338  eV     1   --> A''            
     e(  6 -  6) =    -20.47542  eV     1   --> A''            
     e(  7 -  7) =    -20.46122  eV     1   --> A'             
     e(  8 -  8) =    -20.44641  eV     1   --> A''            
     e(  9 -  9) =     -1.41591  eV     1   --> A'             
     e( 10 - 10) =     -0.90393  eV     1   --> A'             
     e( 11 - 11) =      6.79713  eV     1   --> A''            
     e( 12 - 12) =      7.64350  eV     1   --> A'             
     e( 13 - 13) =      7.86620  eV     1   --> A'             
     e( 14 - 14) =      8.46445  eV     1   --> A''            
     e( 15 - 15) =      9.08607  eV     1   --> A'             
     e( 16 - 16) =      9.45032  eV     1   --> A'             
     e( 17 - 17) =     12.10805  eV     1   --> A'             
     e( 18 - 18) =     12.98959  eV     1   --> A''            
     e( 19 - 19) =     13.67891  eV     1   --> A''            
     e( 20 - 20) =     13.88465  eV     1   --> A'             
     e( 21 - 21) =     14.18410  eV     1   --> A''            
     e( 22 - 22) =     14.70803  eV     1   --> A'             
     e( 23 - 23) =     14.97627  eV     1   --> A''            
     e( 24 - 24) =     15.80420  eV     1   --> A''            
     e( 25 - 25) =     15.83970  eV     1   --> A'             
     e( 26 - 26) =     16.04886  eV     1   --> A'             
     e( 27 - 27) =     19.11927  eV     1   --> A'             
     e( 28 - 28) =     19.57606  eV     1   --> A''            
     e( 29 - 29) =     20.78639  eV     1   --> A'             
     e( 30 - 30) =     21.06367  eV     1   --> A'             
     e( 31 - 31) =     21.09092  eV     1   --> A''            
     e( 32 - 32) =     21.47688  eV     1   --> A'             
     e( 33 - 33) =     22.24573  eV     1   --> A''            
     e( 34 - 34) =     23.38326  eV     1   --> A'             
     e( 35 - 35) =     24.51229  eV     1   --> A'             
     e( 36 - 36) =     25.43040  eV     1   --> A''            
     e( 37 - 37) =     26.65568  eV     1   --> A'             
     e( 38 - 38) =     28.90702  eV     1   --> A'             
     e( 39 - 39) =     29.24600  eV     1   --> A''            
     e( 40 - 40) =     29.33831  eV     1   --> A''            

 **************************************************************************

 **************************************************************************

                    xk=(   0.17003,   0.86031,   0.00000  )

     Band symmetry, C_s (m)     point group:

     e(  1 -  1) =    -44.22424  eV     1   --> A'             
     e(  2 -  2) =    -44.21417  eV     1   --> A''            
     e(  3 -  3) =    -20.61135  eV     1   --> A'             
     e(  4 -  4) =    -20.53220  eV     1   --> A'             
     e(  5 -  5) =    -20.51100  eV     1   --> A''            
     e(  6 -  6) =    -20.47588  eV     1   --> A''            
     e(  7 -  7) =    -20.45978  eV     1   --> A'             
     e(  8 -  8) =    -20.44508  eV     1   --> A''            
     e(  9 -  9) =     -1.44883  eV     1   --> A'             
     e( 10 - 10) =     -0.91646  eV     1   --> A'             
     e( 11 - 11) =      6.75464  eV     1   --> A''            
     e( 12 - 12) =      7.71240  eV     1   --> A'             
     e( 13 - 13) =      7.90421  eV     1   --> A'             
     e( 14 - 14) =      8.48872  eV     1   --> A''            
     e( 15 - 15) =      9.12018  eV     1   --> A'             
     e( 16 - 16) =      9.49458  eV     1   --> A'             
     e( 17 - 17) =     12.07621  eV     1   --> A'             
     e( 18 - 18) =     13.00027  eV     1   --> A''            
     e( 19 - 19) =     13.68031  eV     1   --> A''            
     e( 20 - 20) =     13.89018  eV     1   --> A'             
     e( 21 - 21) =     14.16638  eV     1   --> A''            
     e( 22 - 22) =     14.66958  eV     1   --> A'             
     e( 23 - 23) =     14.96641  eV     1   --> A''            
     e( 24 - 24) =     15.75357  eV     1   --> A''            
     e( 25 - 25) =     15.85560  eV     1   --> A'             
     e( 26 - 26) =     16.03927  eV     1   --> A'             
     e( 27 - 27) =     19.09721  eV     1   --> A'             
     e( 28 - 28) =     19.64549  eV     1   --> A''            
     e( 29 - 29) =     20.75241  eV     1   --> A'             
     e( 30 - 30) =     21.04250  eV     1   --> A'             
     e( 31 - 31) =     21.15685  eV     1   --> A''            
     e( 32 - 32) =     21.46315  eV     1   --> A'             
     e( 33 - 33) =     22.32600  eV     1   --> A''            
     e( 34 - 34) =     23.36402  eV     1   --> A'             
     e( 35 - 35) =     24.44737  eV     1   --> A'             
     e( 36 - 36) =     25.44723  eV     1   --> A''            
     e( 37 - 37) =     26.57077  eV     1   --> A'             
     e( 38 - 38) =     28.89251  eV     1   --> A'             
     e( 39 - 39) =     29.18227  eV     1   --> A''            
     e( 40 - 40) =     29.28737  eV     1   --> A''            

 **************************************************************************

 **************************************************************************

                    xk=(   0.16670,   0.86608,   0.00000  )

     Band symmetry, C_s (m)     point group:

     e(  1 -  1) =    -44.22457  eV     1   --> A'             
     e(  2 -  2) =    -44.21449  eV     1   --> A''            
     e(  3 -  3) =    -20.61219  eV     1   --> A'             
     e(  4 -  4) =    -20.52956  eV     1   --> A'             
     e(  5 -  5) =    -20.50856  eV     1   --> A''            
     e(  6 -  6) =    -20.47634  eV     1   --> A''            
     e(  7 -  7) =    -20.45837  eV     1   --> A'             
     e(  8 -  8) =    -20.44377  eV     1   --> A''            
     e(  9 -  9) =     -1.48167  eV     1   --> A'             
     e( 10 - 10) =     -0.92895  eV     1   --> A'             
     e( 11 - 11) =      6.71227  eV     1   --> A''            
     e( 12 - 12) =      7.78261  eV     1   --> A'             
     e( 13 - 13) =      7.94281  eV     1   --> A'             
     e( 14 - 14) =      8.51352  eV     1   --> A''            
     e( 15 - 15) =      9.15328  eV     1   --> A'             
     e( 16 - 16) =      9.53950  eV     1   --> A'             
     e( 17 - 17) =     12.04493  eV     1   --> A'             
     e( 18 - 18) =     13.01108  eV     1   --> A''            
     e( 19 - 19) =     13.67873  eV     1   --> A''            
     e( 20 - 20) =     13.89498  eV     1   --> A'             
     e( 21 - 21) =     14.15181  eV     1   --> A''            
     e( 22 - 22) =     14.63094  eV     1   --> A'             
     e( 23 - 23) =     14.95646  eV     1   --> A''            
     e( 24 - 24) =     15.70257  eV     1   --> A''            
     e( 25 - 25) =     15.87200  eV     1   --> A'             
     e( 26 - 26) =     16.03004  eV     1   --> A'             
     e( 27 - 27) =     19.07471  eV     1   --> A'             
     e( 28 - 28) =     19.71516  eV     1   --> A''            
     e( 29 - 29) =     20.71210  eV     1   --> A'             
     e( 30 - 30) =     21.02162  eV     1   --> A'             
     e( 31 - 31) =     21.22438  eV     1   --> A''            
     e( 32 - 32) =     21.45757  eV     1   --> A'             
     e( 33 - 33) =     22.40819  eV     1   --> A''            
     e( 34 - 34) =     23.34472  eV     1   --> A'             
     e( 35 - 35) =     24.37738  eV     1   --> A'             
     e( 36 - 36) =     25.46079  eV     1   --> A''            
     e( 37 - 37) =     26.48569  eV     1   --> A'             
     e( 38 - 38) =     28.88310  eV     1   --> A'             
     e( 39 - 39) =     29.11868  eV     1   --> A''            
     e( 40 - 40) =     29.23513  eV     1   --> A''            

 **************************************************************************

     BANDS        :     52.37s CPU   1m41.31s WALL


   This run was terminated on:  16:14:23   1Dec2023            

=------------------------------------------------------------------------------=
   JOB DONE.
=------------------------------------------------------------------------------=
