
     Program BANDS v.7.1 starts on  1Dec2023 at 16:54:20 

     This program is part of the open-source Quantum ESPRESSO suite
     for quantum simulation of materials; please cite
         "P. Giannozzi et al., J. Phys.:Condens. Matter 21 395502 (2009);
         "P. Giannozzi et al., J. Phys.:Condens. Matter 29 465901 (2017);
         "P. Giannozzi et al., J. Chem. Phys. 152 154105 (2020);
          URL http://www.quantum-espresso.org", 
     in publications or presentations arising from this work. More details at
     http://www.quantum-espresso.org/quote

     Parallel version (MPI & OpenMP), running on      60 processor cores
     Number of MPI processes:                30
     Threads/MPI process:                     2

     MPI processes distributed on     5 nodes
     R & G space division:  proc/nbgrp/npool/nimage =      30
     13185 MiB available memory on the printing compute node when the environment starts


     Reading xml data from directory:

     ./out/TiS.save/

     IMPORTANT: XC functional enforced from input :
     Exchange-correlation= PBE
                           (   1   4   3   4   0   0   0)
     Any further DFT definition will be discarded
     Please, verify this is what you really want


     Parallelization info
     --------------------
     sticks:   dense  smooth     PW     G-vecs:    dense   smooth      PW
     Min          12      12      4                  386      386      72
     Max          13      13      5                  395      395      81
     Sum         379     379    121                11681    11681    2223

     Using Slab Decomposition


     Check: negative core charge=   -0.000033

     negative rho (up, down):  5.209E-03 0.000E+00
     Reading collected, re-writing distributed wavefunctions
     high-symmetry point:  0.5000 0.2887 0.0000   x coordinate   0.0000
     high-symmetry point:  0.1667 0.8661 0.0000   x coordinate   0.6667

     Plottable bands (eV) written to file TiS.bands.gnu
     Bands written to file TiS.bands

 **************************************************************************

                    xk=(   0.50000,   0.28868,   0.00000  )

     point group C_2h (2/m) 
     there are  4 classes
     the character table:

       E     C2    i     s_h  
A_g    1.00  1.00  1.00  1.00
B_g    1.00 -1.00  1.00 -1.00
A_u    1.00  1.00 -1.00 -1.00
B_u    1.00 -1.00 -1.00  1.00

     the symmetry operations in each class and the name of the first element:

     E        1
                                                                 
     C2       2
                                                                 
     i        3
                                                                 
     s_h      4
                                                                 

     Band symmetry, C_2h (2/m)  point group:

     e(  1 -  1) =    -44.21748  eV     1   --> A_g            
     e(  2 -  2) =    -44.20764  eV     1   --> B_g            
     e(  3 -  3) =    -20.60810  eV     1   --> B_u            
     e(  4 -  4) =    -20.59239  eV     1   --> B_u            
     e(  5 -  5) =    -20.57910  eV     1   --> A_u            
     e(  6 -  6) =    -20.46647  eV     1   --> A_u            
     e(  7 -  7) =    -20.46506  eV     1   --> B_u            
     e(  8 -  8) =    -20.45045  eV     1   --> A_u            
     e(  9 -  9) =     -0.82409  eV     1   --> A_g            
     e( 10 - 10) =     -0.49373  eV     1   --> B_u            
     e( 11 - 11) =      5.66600  eV     1   --> A_g            
     e( 12 - 12) =      7.02196  eV     1   --> B_u            
     e( 13 - 13) =      7.52887  eV     1   --> B_g            
     e( 14 - 14) =      8.29214  eV     1   --> A_u            
     e( 15 - 15) =      8.92231  eV     1   --> A_g            
     e( 16 - 16) =     10.16940  eV     1   --> B_u            
     e( 17 - 17) =     11.23424  eV     1   --> A_g            
     e( 18 - 18) =     12.23009  eV     1   --> B_g            
     e( 19 - 19) =     13.76946  eV     1   --> B_g            
     e( 20 - 20) =     14.91675  eV     1   --> A_g            
     e( 21 - 21) =     15.04723  eV     1   --> B_g            
     e( 22 - 22) =     15.12670  eV     1   --> A_g            
     e( 23 - 23) =     15.14567  eV     1   --> B_g            
     e( 24 - 24) =     15.76221  eV     1   --> A_g            
     e( 25 - 25) =     16.84159  eV     1   --> B_g            
     e( 26 - 26) =     17.09012  eV     1   --> A_g            
     e( 27 - 27) =     17.10284  eV     1   --> B_u            
     e( 28 - 28) =     18.62468  eV     1   --> A_u            
     e( 29 - 29) =     19.42752  eV     1   --> B_g            
     e( 30 - 30) =     19.52867  eV     1   --> B_u            
     e( 31 - 31) =     20.14797  eV     1   --> A_g            
     e( 32 - 32) =     20.62744  eV     1   --> A_u            
     e( 33 - 33) =     23.81957  eV     1   --> A_g            
     e( 34 - 34) =     26.85326  eV     1   --> A_u            
     e( 35 - 35) =     26.91030  eV     1   --> B_u            
     e( 36 - 36) =     27.70612  eV     1   --> B_g            
     e( 37 - 37) =     28.41040  eV     1   --> B_u            
     e( 38 - 38) =     28.45490  eV     1   --> A_g            
     e( 39 - 39) =     28.56861  eV     1   --> B_g            
     e( 40 - 40) =     28.73952  eV     1   --> A_g            

 **************************************************************************

 **************************************************************************

                    xk=(   0.33330,   0.57729,   0.00000  )

     point group C_s (m)    
     there are  2 classes
     the character table:

       E     s    
A'     1.00  1.00
A''    1.00 -1.00

     the symmetry operations in each class and the name of the first element:

     E        1
                                                                 
     s        2
                                                                 

     Band symmetry, C_s (m)     point group:

     e(  1 -  1) =    -44.21511  eV     1   --> A'             
     e(  2 -  2) =    -44.20537  eV     1   --> A''            
     e(  3 -  3) =    -20.58874  eV     1   --> A'             
     e(  4 -  5) =    -20.54976  eV     2   -->   2 A'             
     e(  6 -  7) =    -20.52797  eV     2   -->   2 A''            
     e(  8 -  8) =    -20.46330  eV     1   --> A''            
     e(  9 - 10) =     -0.47787  eV     2   -->   2 A'             
     e( 11 - 11) =      6.69390  eV     1   --> A'             
     e( 12 - 13) =      7.03028  eV     2   -->   2 A'             
     e( 14 - 15) =      8.00571  eV     2   -->   2 A''            
     e( 16 - 16) =      8.29970  eV     1   --> A'             
     e( 17 - 17) =     13.07788  eV     1   --> A''            
     e( 18 - 18) =     13.07837  eV     1   --> A''            
     e( 19 - 19) =     13.83581  eV     1   --> A'             
     e( 20 - 20) =     13.83607  eV     1   --> A'             
     e( 21 - 21) =     14.21684  eV     1   --> A'             
     e( 22 - 22) =     15.04211  eV     1   --> A''            
     e( 23 - 23) =     15.93268  eV     1   --> A''            
     e( 24 - 24) =     15.93367  eV     1   --> A''            
     e( 25 - 25) =     16.07674  eV     1   --> A'             
     e( 26 - 26) =     16.07687  eV     1   --> A'             
     e( 27 - 27) =     17.26924  eV     1   --> A''            
     e( 28 - 28) =     20.99104  eV     1   --> A''            
     e( 29 - 29) =     20.99171  eV     1   --> A''            
     e( 30 - 30) =     21.15892  eV     1   --> A'             
     e( 31 - 31) =     21.16040  eV     1   --> A'             
     e( 32 - 32) =     22.69611  eV     1   --> A''            
     e( 33 - 33) =     22.79252  eV     1   --> A'             
     e( 34 - 34) =     23.20293  eV     1   --> A'             
     e( 35 - 35) =     23.60673  eV     1   --> A'             
     e( 36 - 36) =     23.60737  eV     1   --> A'             
     e( 37 - 37) =     27.91414  eV     1   --> A'             
     e( 38 - 38) =     27.91534  eV     1   --> A'             
     e( 39 - 39) =     27.91582  eV     1   --> A'             
     e( 40 - 40) =     31.08145  eV     1   --> A''            

 **************************************************************************

 **************************************************************************

                    xk=(   0.16670,   0.86608,   0.00000  )

     Band symmetry, C_s (m)     point group:

     e(  1 -  1) =    -44.22457  eV     1   --> A'             
     e(  2 -  2) =    -44.21449  eV     1   --> A''            
     e(  3 -  3) =    -20.61219  eV     1   --> A'             
     e(  4 -  4) =    -20.52956  eV     1   --> A'             
     e(  5 -  5) =    -20.50856  eV     1   --> A''            
     e(  6 -  6) =    -20.47634  eV     1   --> A''            
     e(  7 -  7) =    -20.45837  eV     1   --> A'             
     e(  8 -  8) =    -20.44377  eV     1   --> A''            
     e(  9 -  9) =     -1.48167  eV     1   --> A'             
     e( 10 - 10) =     -0.92895  eV     1   --> A'             
     e( 11 - 11) =      6.71227  eV     1   --> A''            
     e( 12 - 12) =      7.78261  eV     1   --> A'             
     e( 13 - 13) =      7.94281  eV     1   --> A'             
     e( 14 - 14) =      8.51352  eV     1   --> A''            
     e( 15 - 15) =      9.15328  eV     1   --> A'             
     e( 16 - 16) =      9.53950  eV     1   --> A'             
     e( 17 - 17) =     12.04493  eV     1   --> A'             
     e( 18 - 18) =     13.01108  eV     1   --> A''            
     e( 19 - 19) =     13.67873  eV     1   --> A''            
     e( 20 - 20) =     13.89498  eV     1   --> A'             
     e( 21 - 21) =     14.15181  eV     1   --> A''            
     e( 22 - 22) =     14.63094  eV     1   --> A'             
     e( 23 - 23) =     14.95646  eV     1   --> A''            
     e( 24 - 24) =     15.70257  eV     1   --> A''            
     e( 25 - 25) =     15.87200  eV     1   --> A'             
     e( 26 - 26) =     16.03004  eV     1   --> A'             
     e( 27 - 27) =     19.07471  eV     1   --> A'             
     e( 28 - 28) =     19.71516  eV     1   --> A''            
     e( 29 - 29) =     20.71210  eV     1   --> A'             
     e( 30 - 30) =     21.02162  eV     1   --> A'             
     e( 31 - 31) =     21.22438  eV     1   --> A''            
     e( 32 - 32) =     21.45757  eV     1   --> A'             
     e( 33 - 33) =     22.40819  eV     1   --> A''            
     e( 34 - 34) =     23.34472  eV     1   --> A'             
     e( 35 - 35) =     24.37738  eV     1   --> A'             
     e( 36 - 36) =     25.46079  eV     1   --> A''            
     e( 37 - 37) =     26.48569  eV     1   --> A'             
     e( 38 - 38) =     28.88310  eV     1   --> A'             
     e( 39 - 39) =     29.11868  eV     1   --> A''            
     e( 40 - 40) =     29.23513  eV     1   --> A''            

 **************************************************************************

     BANDS        :      3.02s CPU      6.82s WALL


   This run was terminated on:  16:54:26   1Dec2023            

=------------------------------------------------------------------------------=
   JOB DONE.
=------------------------------------------------------------------------------=
