
     Program PWSCF v.7.1 starts on  1Dec2023 at 16:54:10 

     This program is part of the open-source Quantum ESPRESSO suite
     for quantum simulation of materials; please cite
         "P. Giannozzi et al., J. Phys.:Condens. Matter 21 395502 (2009);
         "P. Giannozzi et al., J. Phys.:Condens. Matter 29 465901 (2017);
         "P. Giannozzi et al., J. Chem. Phys. 152 154105 (2020);
          URL http://www.quantum-espresso.org", 
     in publications or presentations arising from this work. More details at
     http://www.quantum-espresso.org/quote

     Parallel version (MPI & OpenMP), running on      60 processor cores
     Number of MPI processes:                30
     Threads/MPI process:                     2

     MPI processes distributed on     5 nodes
     13188 MiB available memory on the printing compute node when the environment starts

     Reading input from TiS.nscf-bands.in
Warning: card    !0.0000   0.0000   0.0000 50  ! \GAMMA ignored
Warning: card    !0.0000   0.0000   0.0000 50  ! \GAMMA ignored
Warning: card    !0.5000   0.0000   0.0000 50  ! M ignored
Warning: card    !0.0000   0.0000   0.0000 50  ! \GAMMA ignored
Warning: card    !0.0000   0.0000   0.5000 50  ! A ignored
Warning: card    !0.5000   0.0000   0.5000 50  ! L ignored
Warning: card    !0.3333   0.3333   0.5000 1   ! H ignored

     Current dimensions of program PWSCF are:
     Max number of different atomic species (ntypx) = 10
     Max number of k-points (npk) =  40000
     Max angular momentum in pseudopotentials (lmaxx) =  4

     Atomic positions and unit cell read from directory:
     ./out/TiS.save/
     Atomic positions from file used, from input discarded

     Message from routine setup:
     using ibrav=0 with symmetry is DISCOURAGED, use correct ibrav instead

     K-points division:     npool     =      30
     Subspace diagonalization in iterative solution of the eigenvalue problem:
     a serial algorithm will be used

     Message from routine divide_et_impera:
     suboptimal parallelization: some nodes have no k-points

     G-vector sticks info
     --------------------
     sticks:   dense  smooth     PW     G-vecs:    dense   smooth      PW
     Sum         379     379    121                11681    11681    2223

     Using Slab Decomposition



     bravais-lattice index     =            0
     lattice parameter (alat)  =       6.2293  a.u.
     unit-cell volume          =     417.9542 (a.u.)^3
     number of atoms/cell      =            4
     number of atomic types    =            2
     number of electrons       =        36.00
     number of Kohn-Sham states=           40
     kinetic-energy cutoff     =      35.0000  Ry
     charge density cutoff     =     140.0000  Ry
     Exchange-correlation=  SLA  PW   PBX  PBC
                           (   1   4   3   4   0   0   0)

     celldm(1)=   6.229263  celldm(2)=   0.000000  celldm(3)=   0.000000
     celldm(4)=   0.000000  celldm(5)=   0.000000  celldm(6)=   0.000000

     crystal axes: (cart. coord. in units of alat)
               a(1) = (   1.000000   0.000000   0.000000 )  
               a(2) = (  -0.500000   0.866025   0.000000 )  
               a(3) = (   0.000000   0.000000   1.996586 )  

     reciprocal axes: (cart. coord. in units 2 pi/alat)
               b(1) = (  1.000000  0.577350 -0.000000 )  
               b(2) = (  0.000000  1.154701  0.000000 )  
               b(3) = (  0.000000 -0.000000  0.500855 )  


     PseudoPot. # 1 for S  read from file:
     /home/tcmp/apps/pseudopotential/s_pbe_v1.4.uspp.F.UPF
     MD5 check sum: 88d86576ff6df21479756cfb9bdac1df
     Pseudo is Ultrasoft + core correction, Zval =  6.0
     Generated by new atomic code, or converted to UPF format
     Using radial grid of  907 points,  6 beta functions with: 
                l(1) =   0
                l(2) =   0
                l(3) =   1
                l(4) =   1
                l(5) =   2
                l(6) =   2
     Q(r) pseudized with  8 coefficients,  rinner =    1.300   1.300   1.300
                                                       1.300   1.300

     PseudoPot. # 2 for Ti read from file:
     /home/tcmp/apps/pseudopotential/ti_pbe_v1.4.uspp.F.UPF
     MD5 check sum: 88a00a6731bd790ddea75d31a80cb452
     Pseudo is Ultrasoft + core correction, Zval = 12.0
     Generated by new atomic code, or converted to UPF format
     Using radial grid of  851 points,  6 beta functions with: 
                l(1) =   0
                l(2) =   0
                l(3) =   1
                l(4) =   1
                l(5) =   2
                l(6) =   2
     Q(r) pseudized with  6 coefficients,  rinner =    1.000   1.000   1.000
                                                       1.000   1.000

     atomic species   valence    mass     pseudopotential
        S              6.00    32.06500     S ( 1.00)
        Ti            12.00    47.86700     Ti( 1.00)

      8 Sym. Ops., with inversion, found ( 4 have fractional translation)



   Cartesian axes

     site n.     atom                  positions (alat units)
         1           S   tau(   1) = (   0.5000000   0.2887168   0.4991465  )
         2           S   tau(   2) = (  -0.0000000   0.5773086   1.4974395  )
         3           Ti  tau(   3) = (   0.0000000   0.0000000   0.0000000  )
         4           Ti  tau(   4) = (   0.0000000   0.0000000   0.9982930  )

     number of k points=     3  Marzari-Vanderbilt smearing, width (Ry)=  0.0147
                       cart. coord. in units 2pi/alat
        k(    1) = (   0.5000000   0.2886751   0.0000000), wk =   0.6666667
        k(    2) = (   0.3333000   0.5772925   0.0000000), wk =   0.6666667
        k(    3) = (   0.1667000   0.8660831   0.0000000), wk =   0.6666667

     Dense  grid:    11681 G-vectors     FFT dimensions: (  24,  24,  48)

     Estimated max dynamical RAM per process >      13.96 MB

     Estimated total dynamical RAM >     418.70 MB

     Check: negative core charge=   -0.000033

     The potential is recalculated from file :
     ./out/TiS.save/charge-density


     negative rho (up, down):  5.209E-03 0.000E+00
     Starting wfcs are   28 randomized atomic wfcs +   12 random wfcs

     Band Structure Calculation
     Davidson diagonalization with overlap

     ethr =  2.22E-12,  avg # of iterations = 41.0

     total cpu time spent up to now is        5.0 secs

     End of band structure calculation

          k = 0.5000 0.2887 0.0000 (  1464 PWs)   bands (ev):

   -44.2175 -44.2076 -20.6081 -20.5924 -20.5791 -20.4665 -20.4651 -20.4505
    -0.8241  -0.4937   5.6660   7.0220   7.5289   8.2921   8.9223  10.1694
    11.2342  12.2301  13.7695  14.9168  15.0472  15.1267  15.1457  15.7622
    16.8416  17.0901  17.1028  18.6247  19.4275  19.5287  20.1480  20.6274
    23.8196  26.8533  26.9103  27.7061  28.4104  28.4549  28.5686  28.7395

          k = 0.3333 0.5773 0.0000 (  1476 PWs)   bands (ev):

   -44.2151 -44.2054 -20.5887 -20.5498 -20.5497 -20.5280 -20.5279 -20.4633
    -0.4779  -0.4778   6.6939   7.0303   7.0304   8.0057   8.0058   8.2997
    13.0779  13.0784  13.8358  13.8361  14.2168  15.0421  15.9327  15.9337
    16.0767  16.0769  17.2692  20.9910  20.9917  21.1589  21.1604  22.6961
    22.7925  23.2029  23.6067  23.6074  27.9141  27.9153  27.9158  31.0814

          k = 0.1667 0.8661 0.0000 (  1452 PWs)   bands (ev):

   -44.2246 -44.2145 -20.6122 -20.5296 -20.5086 -20.4763 -20.4584 -20.4438
    -1.4817  -0.9290   6.7123   7.7826   7.9428   8.5135   9.1533   9.5395
    12.0449  13.0111  13.6787  13.8950  14.1518  14.6309  14.9565  15.7026
    15.8720  16.0300  19.0747  19.7152  20.7121  21.0216  21.2244  21.4576
    22.4082  23.3447  24.3774  25.4608  26.4857  28.8831  29.1187  29.2351

     Writing all to output data dir ./out/TiS.save/

     init_run     :      0.45s CPU      1.11s WALL (       1 calls)
     electrons    :      1.15s CPU      0.58s WALL (       1 calls)

     Called by init_run:
     wfcinit      :      0.01s CPU      0.69s WALL (       1 calls)
     potinit      :      0.04s CPU      0.04s WALL (       1 calls)
     hinit0       :      0.38s CPU      0.37s WALL (       1 calls)

     Called by electrons:
     c_bands      :      1.15s CPU      0.58s WALL (       1 calls)
     v_of_rho     :      0.02s CPU      0.01s WALL (       1 calls)
     newd         :      0.02s CPU      0.01s WALL (       1 calls)

     Called by c_bands:
     init_us_2    :      0.00s CPU      0.00s WALL (       1 calls)
     init_us_2:cp :      0.00s CPU      0.00s WALL (       1 calls)
     cegterg      :      1.11s CPU      0.56s WALL (       3 calls)

     Called by *egterg:
     cdiaghg      :      0.14s CPU      0.06s WALL (      44 calls)
     h_psi        :      0.73s CPU      0.37s WALL (      47 calls)
     s_psi        :      0.03s CPU      0.02s WALL (      47 calls)
     g_psi        :      0.01s CPU      0.00s WALL (      43 calls)

     Called by h_psi:
     h_psi:calbec :      0.05s CPU      0.02s WALL (      47 calls)
     vloc_psi     :      0.64s CPU      0.33s WALL (      47 calls)
     add_vuspsi   :      0.05s CPU      0.02s WALL (      47 calls)

     General routines
     calbec       :      0.05s CPU      0.02s WALL (      47 calls)
     fft          :      0.00s CPU      0.00s WALL (      12 calls)
     fftw         :      0.56s CPU      0.28s WALL (    2110 calls)
     davcio       :      0.00s CPU      0.00s WALL (       2 calls)

     Parallel routines

     PWSCF        :      3.32s CPU      7.91s WALL


   This run was terminated on:  16:54:18   1Dec2023            

=------------------------------------------------------------------------------=
   JOB DONE.
=------------------------------------------------------------------------------=
