
     Program BANDS v.7.1 starts on  6Oct2023 at  7:22:44 

     This program is part of the open-source Quantum ESPRESSO suite
     for quantum simulation of materials; please cite
         "P. Giannozzi et al., J. Phys.:Condens. Matter 21 395502 (2009);
         "P. Giannozzi et al., J. Phys.:Condens. Matter 29 465901 (2017);
         "P. Giannozzi et al., J. Chem. Phys. 152 154105 (2020);
          URL http://www.quantum-espresso.org", 
     in publications or presentations arising from this work. More details at
     http://www.quantum-espresso.org/quote

     Parallel version (MPI & OpenMP), running on      60 processor cores
     Number of MPI processes:                30
     Threads/MPI process:                     2

     MPI processes distributed on     5 nodes
     R & G space division:  proc/nbgrp/npool/nimage =      30
     13021 MiB available memory on the printing compute node when the environment starts


     Reading xml data from directory:

     ./out/TiS.save/

     IMPORTANT: XC functional enforced from input :
     Exchange-correlation= PBE
                           (   1   4   3   4   0   0   0)
     Any further DFT definition will be discarded
     Please, verify this is what you really want


     Parallelization info
     --------------------
     sticks:   dense  smooth     PW     G-vecs:    dense   smooth      PW
     Min          24      14      4                 1094      472      80
     Max          25      15      5                 1107      481      91
     Sum         745     433    127                33091    14259    2445

     Using Slab Decomposition


     Check: negative core charge=   -0.000005

     negative rho (up, down):  7.843E-04 7.843E-04
     Reading collected, re-writing distributed wavefunctions
     high-symmetry point:  0.5000 0.2887 0.0000   x coordinate   0.0000
     high-symmetry point:  0.3333 0.5773 0.0000   x coordinate   0.3333
     high-symmetry point:  0.0000 0.0000 0.0000   x coordinate   0.9999
     high-symmetry point:  0.5000 0.2887 0.0000   x coordinate   1.5773
     high-symmetry point:  0.0000 0.0000 0.0000   x coordinate   2.1546
     high-symmetry point:  0.0000 0.0000 0.2504   x coordinate   2.4050
     high-symmetry point:  0.5000 0.2887 0.2504   x coordinate   2.9824
     high-symmetry point:  0.3333 0.5773 0.2504   x coordinate   3.3157

     Plottable bands (eV) written to file TiS.bands.gnu
     Bands written to file TiS.bands

 **************************************************************************

                    xk=(   0.50000,   0.28868,   0.00000  )

     point group C_1 (1)    
     there are  1 classes
     the character table:

       E    
A      1.00

     the symmetry operations in each class and the name of the first element:

     E        1
                                                                 

     Band symmetry, C_1 (1)     point group:

     e(  1 -  1) =    -44.21887  eV     1   --> A              
     e(  2 -  2) =    -44.20905  eV     1   --> A              
     e(  3 -  3) =    -20.60981  eV     1   --> A              
     e(  4 -  4) =    -20.59457  eV     1   --> A              
     e(  5 -  5) =    -20.58073  eV     1   --> A              
     e(  6 -  6) =    -20.46874  eV     1   --> A              
     e(  7 -  7) =    -20.46666  eV     1   --> A              
     e(  8 -  8) =    -20.45207  eV     1   --> A              
     e(  9 -  9) =     -0.82655  eV     1   --> A              
     e( 10 - 10) =     -0.49640  eV     1   --> A              
     e( 11 - 11) =      5.66198  eV     1   --> A              
     e( 12 - 12) =      7.01747  eV     1   --> A              
     e( 13 - 13) =      7.52645  eV     1   --> A              
     e( 14 - 14) =      8.28933  eV     1   --> A              
     e( 15 - 15) =      8.91987  eV     1   --> A              
     e( 16 - 16) =     10.16689  eV     1   --> A              
     e( 17 - 17) =     11.23142  eV     1   --> A              
     e( 18 - 18) =     12.22886  eV     1   --> A              
     e( 19 - 19) =     13.76606  eV     1   --> A              
     e( 20 - 20) =     14.91708  eV     1   --> A              
     e( 21 - 21) =     15.04772  eV     1   --> A              
     e( 22 - 22) =     15.12322  eV     1   --> A              
     e( 23 - 23) =     15.14404  eV     1   --> A              
     e( 24 - 24) =     15.76021  eV     1   --> A              
     e( 25 - 25) =     16.83690  eV     1   --> A              
     e( 26 - 26) =     17.08611  eV     1   --> A              
     e( 27 - 27) =     17.09585  eV     1   --> A              
     e( 28 - 28) =     18.61943  eV     1   --> A              
     e( 29 - 29) =     19.42470  eV     1   --> A              
     e( 30 - 30) =     19.52437  eV     1   --> A              
     e( 31 - 31) =     20.14296  eV     1   --> A              
     e( 32 - 32) =     20.62415  eV     1   --> A              
     e( 33 - 33) =     23.81601  eV     1   --> A              
     e( 34 - 34) =     26.84876  eV     1   --> A              
     e( 35 - 35) =     26.90702  eV     1   --> A              
     e( 36 - 36) =     27.70192  eV     1   --> A              
     e( 37 - 37) =     28.40159  eV     1   --> A              
     e( 38 - 38) =     28.44863  eV     1   --> A              
     e( 39 - 39) =     28.56327  eV     1   --> A              
     e( 40 - 40) =     28.73625  eV     1   --> A              

 **************************************************************************

 **************************************************************************

                    xk=(   0.49667,   0.29445,   0.00000  )

     Band symmetry, C_1 (1)     point group:

     e(  1 -  1) =    -44.21887  eV     1   --> A              
     e(  2 -  2) =    -44.20905  eV     1   --> A              
     e(  3 -  3) =    -20.60978  eV     1   --> A              
     e(  4 -  4) =    -20.59457  eV     1   --> A              
     e(  5 -  5) =    -20.58071  eV     1   --> A              
     e(  6 -  6) =    -20.46873  eV     1   --> A              
     e(  7 -  7) =    -20.46672  eV     1   --> A              
     e(  8 -  8) =    -20.45211  eV     1   --> A              
     e(  9 -  9) =     -0.82631  eV     1   --> A              
     e( 10 - 10) =     -0.49635  eV     1   --> A              
     e( 11 - 11) =      5.66249  eV     1   --> A              
     e( 12 - 12) =      7.01750  eV     1   --> A              
     e( 13 - 13) =      7.52680  eV     1   --> A              
     e( 14 - 14) =      8.28911  eV     1   --> A              
     e( 15 - 15) =      8.91925  eV     1   --> A              
     e( 16 - 16) =     10.16045  eV     1   --> A              
     e( 17 - 17) =     11.23711  eV     1   --> A              
     e( 18 - 18) =     12.22936  eV     1   --> A              
     e( 19 - 19) =     13.76585  eV     1   --> A              
     e( 20 - 20) =     14.91599  eV     1   --> A              
     e( 21 - 21) =     15.04759  eV     1   --> A              
     e( 22 - 22) =     15.12292  eV     1   --> A              
     e( 23 - 23) =     15.14399  eV     1   --> A              
     e( 24 - 24) =     15.76061  eV     1   --> A              
     e( 25 - 25) =     16.83664  eV     1   --> A              
     e( 26 - 26) =     17.02755  eV     1   --> A              
     e( 27 - 27) =     17.15671  eV     1   --> A              
     e( 28 - 28) =     18.62119  eV     1   --> A              
     e( 29 - 29) =     19.42090  eV     1   --> A              
     e( 30 - 30) =     19.52597  eV     1   --> A              
     e( 31 - 31) =     20.14464  eV     1   --> A              
     e( 32 - 32) =     20.62622  eV     1   --> A              
     e( 33 - 33) =     23.81401  eV     1   --> A              
     e( 34 - 34) =     26.83498  eV     1   --> A              
     e( 35 - 35) =     26.90670  eV     1   --> A              
     e( 36 - 36) =     27.71519  eV     1   --> A              
     e( 37 - 37) =     28.36216  eV     1   --> A              
     e( 38 - 38) =     28.44270  eV     1   --> A              
     e( 39 - 39) =     28.56594  eV     1   --> A              
     e( 40 - 40) =     28.77539  eV     1   --> A              

 **************************************************************************

 **************************************************************************

                    xk=(   0.49333,   0.30022,   0.00000  )

     Band symmetry, C_1 (1)     point group:

     e(  1 -  1) =    -44.21886  eV     1   --> A              
     e(  2 -  2) =    -44.20904  eV     1   --> A              
     e(  3 -  3) =    -20.60971  eV     1   --> A              
     e(  4 -  4) =    -20.59455  eV     1   --> A              
     e(  5 -  5) =    -20.58064  eV     1   --> A              
     e(  6 -  6) =    -20.46873  eV     1   --> A              
     e(  7 -  7) =    -20.46687  eV     1   --> A              
     e(  8 -  8) =    -20.45225  eV     1   --> A              
     e(  9 -  9) =     -0.82556  eV     1   --> A              
     e( 10 - 10) =     -0.49622  eV     1   --> A              
     e( 11 - 11) =      5.66401  eV     1   --> A              
     e( 12 - 12) =      7.01760  eV     1   --> A              
     e( 13 - 13) =      7.52784  eV     1   --> A              
     e( 14 - 14) =      8.28846  eV     1   --> A              
     e( 15 - 15) =      8.91736  eV     1   --> A              
     e( 16 - 16) =     10.14154  eV     1   --> A              
     e( 17 - 17) =     11.25380  eV     1   --> A              
     e( 18 - 18) =     12.23085  eV     1   --> A              
     e( 19 - 19) =     13.76526  eV     1   --> A              
     e( 20 - 20) =     14.91271  eV     1   --> A              
     e( 21 - 21) =     15.04719  eV     1   --> A              
     e( 22 - 22) =     15.12203  eV     1   --> A              
     e( 23 - 23) =     15.14385  eV     1   --> A              
     e( 24 - 24) =     15.76179  eV     1   --> A              
     e( 25 - 25) =     16.83585  eV     1   --> A              
     e( 26 - 26) =     16.96680  eV     1   --> A              
     e( 27 - 27) =     17.22443  eV     1   --> A              
     e( 28 - 28) =     18.62645  eV     1   --> A              
     e( 29 - 29) =     19.40961  eV     1   --> A              
     e( 30 - 30) =     19.53077  eV     1   --> A              
     e( 31 - 31) =     20.14970  eV     1   --> A              
     e( 32 - 32) =     20.63234  eV     1   --> A              
     e( 33 - 33) =     23.80805  eV     1   --> A              
     e( 34 - 34) =     26.79595  eV     1   --> A              
     e( 35 - 35) =     26.90569  eV     1   --> A              
     e( 36 - 36) =     27.75270  eV     1   --> A              
     e( 37 - 37) =     28.27387  eV     1   --> A              
     e( 38 - 38) =     28.42545  eV     1   --> A              
     e( 39 - 39) =     28.57392  eV     1   --> A              
     e( 40 - 40) =     28.86276  eV     1   --> A              

 **************************************************************************

 **************************************************************************

                    xk=(   0.49000,   0.30599,   0.00000  )

     Band symmetry, C_1 (1)     point group:

     e(  1 -  1) =    -44.21885  eV     1   --> A              
     e(  2 -  2) =    -44.20903  eV     1   --> A              
     e(  3 -  3) =    -20.60958  eV     1   --> A              
     e(  4 -  4) =    -20.59452  eV     1   --> A              
     e(  5 -  5) =    -20.58052  eV     1   --> A              
     e(  6 -  6) =    -20.46871  eV     1   --> A              
     e(  7 -  7) =    -20.46713  eV     1   --> A              
     e(  8 -  8) =    -20.45249  eV     1   --> A              
     e(  9 -  9) =     -0.82432  eV     1   --> A              
     e( 10 - 10) =     -0.49600  eV     1   --> A              
     e( 11 - 11) =      5.66655  eV     1   --> A              
     e( 12 - 12) =      7.01777  eV     1   --> A              
     e( 13 - 13) =      7.52958  eV     1   --> A              
     e( 14 - 14) =      8.28738  eV     1   --> A              
     e( 15 - 15) =      8.91424  eV     1   --> A              
     e( 16 - 16) =     10.11127  eV     1   --> A              
     e( 17 - 17) =     11.28039  eV     1   --> A              
     e( 18 - 18) =     12.23332  eV     1   --> A              
     e( 19 - 19) =     13.76426  eV     1   --> A              
     e( 20 - 20) =     14.90729  eV     1   --> A              
     e( 21 - 21) =     15.04655  eV     1   --> A              
     e( 22 - 22) =     15.12054  eV     1   --> A              
     e( 23 - 23) =     15.14362  eV     1   --> A              
     e( 24 - 24) =     15.76376  eV     1   --> A              
     e( 25 - 25) =     16.83453  eV     1   --> A              
     e( 26 - 26) =     16.90838  eV     1   --> A              
     e( 27 - 27) =     17.29443  eV     1   --> A              
     e( 28 - 28) =     18.63521  eV     1   --> A              
     e( 29 - 29) =     19.39112  eV     1   --> A              
     e( 30 - 30) =     19.53876  eV     1   --> A              
     e( 31 - 31) =     20.15813  eV     1   --> A              
     e( 32 - 32) =     20.64223  eV     1   --> A              
     e( 33 - 33) =     23.79815  eV     1   --> A              
     e( 34 - 34) =     26.73701  eV     1   --> A              
     e( 35 - 35) =     26.90387  eV     1   --> A              
     e( 36 - 36) =     27.80911  eV     1   --> A              
     e( 37 - 37) =     28.16773  eV     1   --> A              
     e( 38 - 38) =     28.39819  eV     1   --> A              
     e( 39 - 39) =     28.58720  eV     1   --> A              
     e( 40 - 40) =     28.96730  eV     1   --> A              

 **************************************************************************

 **************************************************************************

                    xk=(   0.48666,   0.31176,   0.00000  )

     Band symmetry, C_1 (1)     point group:

     e(  1 -  1) =    -44.21884  eV     1   --> A              
     e(  2 -  2) =    -44.20902  eV     1   --> A              
     e(  3 -  3) =    -20.60941  eV     1   --> A              
     e(  4 -  4) =    -20.59448  eV     1   --> A              
     e(  5 -  5) =    -20.58035  eV     1   --> A              
     e(  6 -  6) =    -20.46869  eV     1   --> A              
     e(  7 -  7) =    -20.46748  eV     1   --> A              
     e(  8 -  8) =    -20.45281  eV     1   --> A              
     e(  9 -  9) =     -0.82258  eV     1   --> A              
     e( 10 - 10) =     -0.49569  eV     1   --> A              
     e( 11 - 11) =      5.67011  eV     1   --> A              
     e( 12 - 12) =      7.01800  eV     1   --> A              
     e( 13 - 13) =      7.53201  eV     1   --> A              
     e( 14 - 14) =      8.28587  eV     1   --> A              
     e( 15 - 15) =      8.90988  eV     1   --> A              
     e( 16 - 16) =     10.07114  eV     1   --> A              
     e( 17 - 17) =     11.31540  eV     1   --> A              
     e( 18 - 18) =     12.23679  eV     1   --> A              
     e( 19 - 19) =     13.76284  eV     1   --> A              
     e( 20 - 20) =     14.89975  eV     1   --> A              
     e( 21 - 21) =     15.04571  eV     1   --> A              
     e( 22 - 22) =     15.11842  eV     1   --> A              
     e( 23 - 23) =     15.14329  eV     1   --> A              
     e( 24 - 24) =     15.76652  eV     1   --> A              
     e( 25 - 25) =     16.83267  eV     1   --> A              
     e( 26 - 26) =     16.85237  eV     1   --> A              
     e( 27 - 27) =     17.36659  eV     1   --> A              
     e( 28 - 28) =     18.64742  eV     1   --> A              
     e( 29 - 29) =     19.36589  eV     1   --> A              
     e( 30 - 30) =     19.54996  eV     1   --> A              
     e( 31 - 31) =     20.16993  eV     1   --> A              
     e( 32 - 32) =     20.65549  eV     1   --> A              
     e( 33 - 33) =     23.78440  eV     1   --> A              
     e( 34 - 34) =     26.66377  eV     1   --> A              
     e( 35 - 35) =     26.90104  eV     1   --> A              
     e( 36 - 36) =     27.87881  eV     1   --> A              
     e( 37 - 37) =     28.05469  eV     1   --> A              
     e( 38 - 38) =     28.36270  eV     1   --> A              
     e( 39 - 39) =     28.60573  eV     1   --> A              
     e( 40 - 40) =     29.03182  eV     1   --> A              

 **************************************************************************

 **************************************************************************

                    xk=(   0.48333,   0.31754,   0.00000  )

     Band symmetry, C_1 (1)     point group:

     e(  1 -  1) =    -44.21882  eV     1   --> A              
     e(  2 -  2) =    -44.20900  eV     1   --> A              
     e(  3 -  3) =    -20.60918  eV     1   --> A              
     e(  4 -  4) =    -20.59442  eV     1   --> A              
     e(  5 -  5) =    -20.58014  eV     1   --> A              
     e(  6 -  6) =    -20.46867  eV     1   --> A              
     e(  7 -  7) =    -20.46794  eV     1   --> A              
     e(  8 -  8) =    -20.45324  eV     1   --> A              
     e(  9 -  9) =     -0.82035  eV     1   --> A              
     e( 10 - 10) =     -0.49529  eV     1   --> A              
     e( 11 - 11) =      5.67468  eV     1   --> A              
     e( 12 - 12) =      7.01831  eV     1   --> A              
     e( 13 - 13) =      7.53513  eV     1   --> A              
     e( 14 - 14) =      8.28394  eV     1   --> A              
     e( 15 - 15) =      8.90430  eV     1   --> A              
     e( 16 - 16) =     10.02275  eV     1   --> A              
     e( 17 - 17) =     11.35723  eV     1   --> A              
     e( 18 - 18) =     12.24123  eV     1   --> A              
     e( 19 - 19) =     13.76096  eV     1   --> A              
     e( 20 - 20) =     14.89014  eV     1   --> A              
     e( 21 - 21) =     15.04475  eV     1   --> A              
     e( 22 - 22) =     15.11566  eV     1   --> A              
     e( 23 - 23) =     15.14286  eV     1   --> A              
     e( 24 - 24) =     15.77006  eV     1   --> A              
     e( 25 - 25) =     16.79880  eV     1   --> A              
     e( 26 - 26) =     16.83029  eV     1   --> A              
     e( 27 - 27) =     17.44083  eV     1   --> A              
     e( 28 - 28) =     18.66305  eV     1   --> A              
     e( 29 - 29) =     19.33445  eV     1   --> A              
     e( 30 - 30) =     19.56435  eV     1   --> A              
     e( 31 - 31) =     20.18509  eV     1   --> A              
     e( 32 - 32) =     20.67161  eV     1   --> A              
     e( 33 - 33) =     23.76686  eV     1   --> A              
     e( 34 - 34) =     26.58063  eV     1   --> A              
     e( 35 - 35) =     26.89692  eV     1   --> A              
     e( 36 - 36) =     27.93854  eV     1   --> A              
     e( 37 - 37) =     27.95741  eV     1   --> A              
     e( 38 - 38) =     28.32081  eV     1   --> A              
     e( 39 - 39) =     28.62948  eV     1   --> A              
     e( 40 - 40) =     29.04136  eV     1   --> A              

 **************************************************************************

 **************************************************************************

                    xk=(   0.48000,   0.32331,   0.00000  )

     Band symmetry, C_1 (1)     point group:

     e(  1 -  1) =    -44.21879  eV     1   --> A              
     e(  2 -  2) =    -44.20898  eV     1   --> A              
     e(  3 -  3) =    -20.60891  eV     1   --> A              
     e(  4 -  4) =    -20.59436  eV     1   --> A              
     e(  5 -  5) =    -20.57988  eV     1   --> A              
     e(  6 -  6) =    -20.46864  eV     1   --> A              
     e(  7 -  7) =    -20.46850  eV     1   --> A              
     e(  8 -  8) =    -20.45375  eV     1   --> A              
     e(  9 -  9) =     -0.81763  eV     1   --> A              
     e( 10 - 10) =     -0.49481  eV     1   --> A              
     e( 11 - 11) =      5.68025  eV     1   --> A              
     e( 12 - 12) =      7.01867  eV     1   --> A              
     e( 13 - 13) =      7.53892  eV     1   --> A              
     e( 14 - 14) =      8.28159  eV     1   --> A              
     e( 15 - 15) =      8.89754  eV     1   --> A              
     e( 16 - 16) =      9.96762  eV     1   --> A              
     e( 17 - 17) =     11.40443  eV     1   --> A              
     e( 18 - 18) =     12.24666  eV     1   --> A              
     e( 19 - 19) =     13.75861  eV     1   --> A              
     e( 20 - 20) =     14.87852  eV     1   --> A              
     e( 21 - 21) =     15.04373  eV     1   --> A              
     e( 22 - 22) =     15.11221  eV     1   --> A              
     e( 23 - 23) =     15.14234  eV     1   --> A              
     e( 24 - 24) =     15.77438  eV     1   --> A              
     e( 25 - 25) =     16.74765  eV     1   --> A              
     e( 26 - 26) =     16.82737  eV     1   --> A              
     e( 27 - 27) =     17.51704  eV     1   --> A              
     e( 28 - 28) =     18.68203  eV     1   --> A              
     e( 29 - 29) =     19.29741  eV     1   --> A              
     e( 30 - 30) =     19.58193  eV     1   --> A              
     e( 31 - 31) =     20.20362  eV     1   --> A              
     e( 32 - 32) =     20.69006  eV     1   --> A              
     e( 33 - 33) =     23.74565  eV     1   --> A              
     e( 34 - 34) =     26.49066  eV     1   --> A              
     e( 35 - 35) =     26.89114  eV     1   --> A              
     e( 36 - 36) =     27.82081  eV     1   --> A              
     e( 37 - 37) =     28.04182  eV     1   --> A              
     e( 38 - 38) =     28.27426  eV     1   --> A              
     e( 39 - 39) =     28.65838  eV     1   --> A              
     e( 40 - 40) =     29.04919  eV     1   --> A              

 **************************************************************************

 **************************************************************************

                    xk=(   0.47666,   0.32908,   0.00000  )

     Band symmetry, C_1 (1)     point group:

     e(  1 -  1) =    -44.21877  eV     1   --> A              
     e(  2 -  2) =    -44.20895  eV     1   --> A              
     e(  3 -  3) =    -20.60858  eV     1   --> A              
     e(  4 -  4) =    -20.59427  eV     1   --> A              
     e(  5 -  5) =    -20.57957  eV     1   --> A              
     e(  6 -  6) =    -20.46916  eV     1   --> A              
     e(  7 -  7) =    -20.46860  eV     1   --> A              
     e(  8 -  8) =    -20.45435  eV     1   --> A              
     e(  9 -  9) =     -0.81444  eV     1   --> A              
     e( 10 - 10) =     -0.49424  eV     1   --> A              
     e( 11 - 11) =      5.68684  eV     1   --> A              
     e( 12 - 12) =      7.01909  eV     1   --> A              
     e( 13 - 13) =      7.54339  eV     1   --> A              
     e( 14 - 14) =      8.27883  eV     1   --> A              
     e( 15 - 15) =      8.88961  eV     1   --> A              
     e( 16 - 16) =      9.90703  eV     1   --> A              
     e( 17 - 17) =     11.45574  eV     1   --> A              
     e( 18 - 18) =     12.25305  eV     1   --> A              
     e( 19 - 19) =     13.75574  eV     1   --> A              
     e( 20 - 20) =     14.86495  eV     1   --> A              
     e( 21 - 21) =     15.04275  eV     1   --> A              
     e( 22 - 22) =     15.10805  eV     1   --> A              
     e( 23 - 23) =     15.14172  eV     1   --> A              
     e( 24 - 24) =     15.77945  eV     1   --> A              
     e( 25 - 25) =     16.69892  eV     1   --> A              
     e( 26 - 26) =     16.82391  eV     1   --> A              
     e( 27 - 27) =     17.59515  eV     1   --> A              
     e( 28 - 28) =     18.70430  eV     1   --> A              
     e( 29 - 29) =     19.25538  eV     1   --> A              
     e( 30 - 30) =     19.60271  eV     1   --> A              
     e( 31 - 31) =     20.22549  eV     1   --> A              
     e( 32 - 32) =     20.71030  eV     1   --> A              
     e( 33 - 33) =     23.72091  eV     1   --> A              
     e( 34 - 34) =     26.39591  eV     1   --> A              
     e( 35 - 35) =     26.88324  eV     1   --> A              
     e( 36 - 36) =     27.70226  eV     1   --> A              
     e( 37 - 37) =     28.12998  eV     1   --> A              
     e( 38 - 38) =     28.22457  eV     1   --> A              
     e( 39 - 39) =     28.69235  eV     1   --> A              
     e( 40 - 40) =     29.05430  eV     1   --> A              

 **************************************************************************

 **************************************************************************

                    xk=(   0.47333,   0.33485,   0.00000  )

     Band symmetry, C_1 (1)     point group:

     e(  1 -  1) =    -44.21874  eV     1   --> A              
     e(  2 -  2) =    -44.20892  eV     1   --> A              
     e(  3 -  3) =    -20.60821  eV     1   --> A              
     e(  4 -  4) =    -20.59418  eV     1   --> A              
     e(  5 -  5) =    -20.57922  eV     1   --> A              
     e(  6 -  6) =    -20.46992  eV     1   --> A              
     e(  7 -  7) =    -20.46856  eV     1   --> A              
     e(  8 -  8) =    -20.45504  eV     1   --> A              
     e(  9 -  9) =     -0.81077  eV     1   --> A              
     e( 10 - 10) =     -0.49360  eV     1   --> A              
     e( 11 - 11) =      5.69444  eV     1   --> A              
     e( 12 - 12) =      7.01958  eV     1   --> A              
     e( 13 - 13) =      7.54851  eV     1   --> A              
     e( 14 - 14) =      8.27567  eV     1   --> A              
     e( 15 - 15) =      8.88055  eV     1   --> A              
     e( 16 - 16) =      9.84205  eV     1   --> A              
     e( 17 - 17) =     11.51016  eV     1   --> A              
     e( 18 - 18) =     12.26041  eV     1   --> A              
     e( 19 - 19) =     13.75231  eV     1   --> A              
     e( 20 - 20) =     14.84953  eV     1   --> A              
     e( 21 - 21) =     15.04191  eV     1   --> A              
     e( 22 - 22) =     15.10313  eV     1   --> A              
     e( 23 - 23) =     15.14100  eV     1   --> A              
     e( 24 - 24) =     15.78527  eV     1   --> A              
     e( 25 - 25) =     16.65259  eV     1   --> A              
     e( 26 - 26) =     16.81991  eV     1   --> A              
     e( 27 - 27) =     17.67505  eV     1   --> A              
     e( 28 - 28) =     18.72978  eV     1   --> A              
     e( 29 - 29) =     19.20895  eV     1   --> A              
     e( 30 - 30) =     19.62669  eV     1   --> A              
     e( 31 - 31) =     20.25071  eV     1   --> A              
     e( 32 - 32) =     20.73181  eV     1   --> A              
     e( 33 - 33) =     23.69277  eV     1   --> A              
     e( 34 - 34) =     26.29776  eV     1   --> A              
     e( 35 - 35) =     26.87269  eV     1   --> A              
     e( 36 - 36) =     27.58332  eV     1   --> A              
     e( 37 - 37) =     28.17313  eV     1   --> A              
     e( 38 - 38) =     28.22053  eV     1   --> A              
     e( 39 - 39) =     28.73131  eV     1   --> A              
     e( 40 - 40) =     29.05594  eV     1   --> A              

 **************************************************************************

 **************************************************************************

                    xk=(   0.46999,   0.34063,   0.00000  )

     Band symmetry, C_1 (1)     point group:

     e(  1 -  1) =    -44.21870  eV     1   --> A              
     e(  2 -  2) =    -44.20889  eV     1   --> A              
     e(  3 -  3) =    -20.60779  eV     1   --> A              
     e(  4 -  4) =    -20.59408  eV     1   --> A              
     e(  5 -  5) =    -20.57882  eV     1   --> A              
     e(  6 -  6) =    -20.47077  eV     1   --> A              
     e(  7 -  7) =    -20.46852  eV     1   --> A              
     e(  8 -  8) =    -20.45583  eV     1   --> A              
     e(  9 -  9) =     -0.80664  eV     1   --> A              
     e( 10 - 10) =     -0.49288  eV     1   --> A              
     e( 11 - 11) =      5.70303  eV     1   --> A              
     e( 12 - 12) =      7.02011  eV     1   --> A              
     e( 13 - 13) =      7.55428  eV     1   --> A              
     e( 14 - 14) =      8.27212  eV     1   --> A              
     e( 15 - 15) =      8.87039  eV     1   --> A              
     e( 16 - 16) =      9.77353  eV     1   --> A              
     e( 17 - 17) =     11.56687  eV     1   --> A              
     e( 18 - 18) =     12.26873  eV     1   --> A              
     e( 19 - 19) =     13.74827  eV     1   --> A              
     e( 20 - 20) =     14.83234  eV     1   --> A              
     e( 21 - 21) =     15.04132  eV     1   --> A              
     e( 22 - 22) =     15.09742  eV     1   --> A              
     e( 23 - 23) =     15.14017  eV     1   --> A              
     e( 24 - 24) =     15.79182  eV     1   --> A              
     e( 25 - 25) =     16.60863  eV     1   --> A              
     e( 26 - 26) =     16.81536  eV     1   --> A              
     e( 27 - 27) =     17.75664  eV     1   --> A              
     e( 28 - 28) =     18.75839  eV     1   --> A              
     e( 29 - 29) =     19.15867  eV     1   --> A              
     e( 30 - 30) =     19.65386  eV     1   --> A              
     e( 31 - 31) =     20.27926  eV     1   --> A              
     e( 32 - 32) =     20.75415  eV     1   --> A              
     e( 33 - 33) =     23.66138  eV     1   --> A              
     e( 34 - 34) =     26.19714  eV     1   --> A              
     e( 35 - 35) =     26.85890  eV     1   --> A              
     e( 36 - 36) =     27.46425  eV     1   --> A              
     e( 37 - 37) =     28.12119  eV     1   --> A              
     e( 38 - 38) =     28.31252  eV     1   --> A              
     e( 39 - 39) =     28.77514  eV     1   --> A              
     e( 40 - 40) =     29.05363  eV     1   --> A              

 **************************************************************************

 **************************************************************************

                    xk=(   0.46666,   0.34640,   0.00000  )

     Band symmetry, C_1 (1)     point group:

     e(  1 -  1) =    -44.21867  eV     1   --> A              
     e(  2 -  2) =    -44.20885  eV     1   --> A              
     e(  3 -  3) =    -20.60733  eV     1   --> A              
     e(  4 -  4) =    -20.59396  eV     1   --> A              
     e(  5 -  5) =    -20.57837  eV     1   --> A              
     e(  6 -  6) =    -20.47172  eV     1   --> A              
     e(  7 -  7) =    -20.46847  eV     1   --> A              
     e(  8 -  8) =    -20.45669  eV     1   --> A              
     e(  9 -  9) =     -0.80204  eV     1   --> A              
     e( 10 - 10) =     -0.49208  eV     1   --> A              
     e( 11 - 11) =      5.71263  eV     1   --> A              
     e( 12 - 12) =      7.02070  eV     1   --> A              
     e( 13 - 13) =      7.56069  eV     1   --> A              
     e( 14 - 14) =      8.26818  eV     1   --> A              
     e( 15 - 15) =      8.85919  eV     1   --> A              
     e( 16 - 16) =      9.70215  eV     1   --> A              
     e( 17 - 17) =     11.62526  eV     1   --> A              
     e( 18 - 18) =     12.27799  eV     1   --> A              
     e( 19 - 19) =     13.74358  eV     1   --> A              
     e( 20 - 20) =     14.81350  eV     1   --> A              
     e( 21 - 21) =     15.04110  eV     1   --> A              
     e( 22 - 22) =     15.09089  eV     1   --> A              
     e( 23 - 23) =     15.13924  eV     1   --> A              
     e( 24 - 24) =     15.79907  eV     1   --> A              
     e( 25 - 25) =     16.56699  eV     1   --> A              
     e( 26 - 26) =     16.81026  eV     1   --> A              
     e( 27 - 27) =     17.83980  eV     1   --> A              
     e( 28 - 28) =     18.79004  eV     1   --> A              
     e( 29 - 29) =     19.10508  eV     1   --> A              
     e( 30 - 30) =     19.68424  eV     1   --> A              
     e( 31 - 31) =     20.31113  eV     1   --> A              
     e( 32 - 32) =     20.77690  eV     1   --> A              
     e( 33 - 33) =     23.62693  eV     1   --> A              
     e( 34 - 34) =     26.09471  eV     1   --> A              
     e( 35 - 35) =     26.84120  eV     1   --> A              
     e( 36 - 36) =     27.34520  eV     1   --> A              
     e( 37 - 37) =     28.06990  eV     1   --> A              
     e( 38 - 38) =     28.40528  eV     1   --> A              
     e( 39 - 39) =     28.82376  eV     1   --> A              
     e( 40 - 40) =     29.04709  eV     1   --> A              

 **************************************************************************

 **************************************************************************

                    xk=(   0.46333,   0.35217,   0.00000  )

     Band symmetry, C_1 (1)     point group:

     e(  1 -  1) =    -44.21862  eV     1   --> A              
     e(  2 -  2) =    -44.20881  eV     1   --> A              
     e(  3 -  3) =    -20.60682  eV     1   --> A              
     e(  4 -  4) =    -20.59382  eV     1   --> A              
     e(  5 -  5) =    -20.57788  eV     1   --> A              
     e(  6 -  6) =    -20.47276  eV     1   --> A              
     e(  7 -  7) =    -20.46841  eV     1   --> A              
     e(  8 -  8) =    -20.45765  eV     1   --> A              
     e(  9 -  9) =     -0.79700  eV     1   --> A              
     e( 10 - 10) =     -0.49122  eV     1   --> A              
     e( 11 - 11) =      5.72322  eV     1   --> A              
     e( 12 - 12) =      7.02134  eV     1   --> A              
     e( 13 - 13) =      7.56772  eV     1   --> A              
     e( 14 - 14) =      8.26388  eV     1   --> A              
     e( 15 - 15) =      8.84699  eV     1   --> A              
     e( 16 - 16) =      9.62848  eV     1   --> A              
     e( 17 - 17) =     11.68485  eV     1   --> A              
     e( 18 - 18) =     12.28818  eV     1   --> A              
     e( 19 - 19) =     13.73820  eV     1   --> A              
     e( 20 - 20) =     14.79312  eV     1   --> A              
     e( 21 - 21) =     15.04137  eV     1   --> A              
     e( 22 - 22) =     15.08349  eV     1   --> A              
     e( 23 - 23) =     15.13820  eV     1   --> A              
     e( 24 - 24) =     15.80699  eV     1   --> A              
     e( 25 - 25) =     16.52762  eV     1   --> A              
     e( 26 - 26) =     16.80459  eV     1   --> A              
     e( 27 - 27) =     17.92442  eV     1   --> A              
     e( 28 - 28) =     18.82462  eV     1   --> A              
     e( 29 - 29) =     19.04862  eV     1   --> A              
     e( 30 - 30) =     19.71782  eV     1   --> A              
     e( 31 - 31) =     20.34629  eV     1   --> A              
     e( 32 - 32) =     20.79971  eV     1   --> A              
     e( 33 - 33) =     23.58959  eV     1   --> A              
     e( 34 - 34) =     25.99095  eV     1   --> A              
     e( 35 - 35) =     26.81891  eV     1   --> A              
     e( 36 - 36) =     27.22632  eV     1   --> A              
     e( 37 - 37) =     28.02034  eV     1   --> A              
     e( 38 - 38) =     28.49835  eV     1   --> A              
     e( 39 - 39) =     28.87701  eV     1   --> A              
     e( 40 - 40) =     29.03619  eV     1   --> A              

 **************************************************************************

 **************************************************************************

                    xk=(   0.45999,   0.35794,   0.00000  )

     Band symmetry, C_1 (1)     point group:

     e(  1 -  1) =    -44.21858  eV     1   --> A              
     e(  2 -  2) =    -44.20877  eV     1   --> A              
     e(  3 -  3) =    -20.60627  eV     1   --> A              
     e(  4 -  4) =    -20.59367  eV     1   --> A              
     e(  5 -  5) =    -20.57734  eV     1   --> A              
     e(  6 -  6) =    -20.47389  eV     1   --> A              
     e(  7 -  7) =    -20.46835  eV     1   --> A              
     e(  8 -  8) =    -20.45868  eV     1   --> A              
     e(  9 -  9) =     -0.79152  eV     1   --> A              
     e( 10 - 10) =     -0.49029  eV     1   --> A              
     e( 11 - 11) =      5.73481  eV     1   --> A              
     e( 12 - 12) =      7.02202  eV     1   --> A              
     e( 13 - 13) =      7.57536  eV     1   --> A              
     e( 14 - 14) =      8.25921  eV     1   --> A              
     e( 15 - 15) =      8.83382  eV     1   --> A              
     e( 16 - 16) =      9.55293  eV     1   --> A              
     e( 17 - 17) =     11.74526  eV     1   --> A              
     e( 18 - 18) =     12.29929  eV     1   --> A              
     e( 19 - 19) =     13.73206  eV     1   --> A              
     e( 20 - 20) =     14.77130  eV     1   --> A              
     e( 21 - 21) =     15.04225  eV     1   --> A              
     e( 22 - 22) =     15.07519  eV     1   --> A              
     e( 23 - 23) =     15.13705  eV     1   --> A              
     e( 24 - 24) =     15.81554  eV     1   --> A              
     e( 25 - 25) =     16.49045  eV     1   --> A              
     e( 26 - 26) =     16.79835  eV     1   --> A              
     e( 27 - 27) =     18.01036  eV     1   --> A              
     e( 28 - 28) =     18.86204  eV     1   --> A              
     e( 29 - 29) =     18.98972  eV     1   --> A              
     e( 30 - 30) =     19.75462  eV     1   --> A              
     e( 31 - 31) =     20.38473  eV     1   --> A              
     e( 32 - 32) =     20.82230  eV     1   --> A              
     e( 33 - 33) =     23.54953  eV     1   --> A              
     e( 34 - 34) =     25.88621  eV     1   --> A              
     e( 35 - 35) =     26.79139  eV     1   --> A              
     e( 36 - 36) =     27.10768  eV     1   --> A              
     e( 37 - 37) =     27.97346  eV     1   --> A              
     e( 38 - 38) =     28.59136  eV     1   --> A              
     e( 39 - 39) =     28.93474  eV     1   --> A              
     e( 40 - 40) =     29.02094  eV     1   --> A              

 **************************************************************************

 **************************************************************************

                    xk=(   0.45666,   0.36372,   0.00000  )

     Band symmetry, C_1 (1)     point group:

     e(  1 -  1) =    -44.21853  eV     1   --> A              
     e(  2 -  2) =    -44.20872  eV     1   --> A              
     e(  3 -  3) =    -20.60567  eV     1   --> A              
     e(  4 -  4) =    -20.59351  eV     1   --> A              
     e(  5 -  5) =    -20.57676  eV     1   --> A              
     e(  6 -  6) =    -20.47511  eV     1   --> A              
     e(  7 -  7) =    -20.46829  eV     1   --> A              
     e(  8 -  8) =    -20.45980  eV     1   --> A              
     e(  9 -  9) =     -0.78562  eV     1   --> A              
     e( 10 - 10) =     -0.48930  eV     1   --> A              
     e( 11 - 11) =      5.74738  eV     1   --> A              
     e( 12 - 12) =      7.02273  eV     1   --> A              
     e( 13 - 13) =      7.58358  eV     1   --> A              
     e( 14 - 14) =      8.25421  eV     1   --> A              
     e( 15 - 15) =      8.81976  eV     1   --> A              
     e( 16 - 16) =      9.47589  eV     1   --> A              
     e( 17 - 17) =     11.80622  eV     1   --> A              
     e( 18 - 18) =     12.31131  eV     1   --> A              
     e( 19 - 19) =     13.72514  eV     1   --> A              
     e( 20 - 20) =     14.74818  eV     1   --> A              
     e( 21 - 21) =     15.04388  eV     1   --> A              
     e( 22 - 22) =     15.06597  eV     1   --> A              
     e( 23 - 23) =     15.13578  eV     1   --> A              
     e( 24 - 24) =     15.82467  eV     1   --> A              
     e( 25 - 25) =     16.45542  eV     1   --> A              
     e( 26 - 26) =     16.79152  eV     1   --> A              
     e( 27 - 27) =     18.09750  eV     1   --> A              
     e( 28 - 28) =     18.90219  eV     1   --> A              
     e( 29 - 29) =     18.92876  eV     1   --> A              
     e( 30 - 30) =     19.79465  eV     1   --> A              
     e( 31 - 31) =     20.42640  eV     1   --> A              
     e( 32 - 32) =     20.84442  eV     1   --> A              
     e( 33 - 33) =     23.50691  eV     1   --> A              
     e( 34 - 34) =     25.78076  eV     1   --> A              
     e( 35 - 35) =     26.75803  eV     1   --> A              
     e( 36 - 36) =     26.98938  eV     1   --> A              
     e( 37 - 37) =     27.93008  eV     1   --> A              
     e( 38 - 38) =     28.68405  eV     1   --> A              
     e( 39 - 39) =     28.99682  eV     1   --> A              
     e( 40 - 40) =     29.00147  eV     1   --> A              

 **************************************************************************

 **************************************************************************

                    xk=(   0.45332,   0.36949,   0.00000  )

     Band symmetry, C_1 (1)     point group:

     e(  1 -  1) =    -44.21848  eV     1   --> A              
     e(  2 -  2) =    -44.20867  eV     1   --> A              
     e(  3 -  3) =    -20.60504  eV     1   --> A              
     e(  4 -  4) =    -20.59333  eV     1   --> A              
     e(  5 -  5) =    -20.57613  eV     1   --> A              
     e(  6 -  6) =    -20.47642  eV     1   --> A              
     e(  7 -  7) =    -20.46822  eV     1   --> A              
     e(  8 -  8) =    -20.46100  eV     1   --> A              
     e(  9 -  9) =     -0.77930  eV     1   --> A              
     e( 10 - 10) =     -0.48826  eV     1   --> A              
     e( 11 - 11) =      5.76093  eV     1   --> A              
     e( 12 - 12) =      7.02348  eV     1   --> A              
     e( 13 - 13) =      7.59238  eV     1   --> A              
     e( 14 - 14) =      8.24888  eV     1   --> A              
     e( 15 - 15) =      8.80486  eV     1   --> A              
     e( 16 - 16) =      9.39765  eV     1   --> A              
     e( 17 - 17) =     11.86752  eV     1   --> A              
     e( 18 - 18) =     12.32422  eV     1   --> A              
     e( 19 - 19) =     13.71740  eV     1   --> A              
     e( 20 - 20) =     14.72387  eV     1   --> A              
     e( 21 - 21) =     15.04637  eV     1   --> A              
     e( 22 - 22) =     15.05579  eV     1   --> A              
     e( 23 - 23) =     15.13439  eV     1   --> A              
     e( 24 - 24) =     15.83434  eV     1   --> A              
     e( 25 - 25) =     16.42247  eV     1   --> A              
     e( 26 - 26) =     16.78410  eV     1   --> A              
     e( 27 - 27) =     18.18570  eV     1   --> A              
     e( 28 - 28) =     18.86609  eV     1   --> A              
     e( 29 - 29) =     18.94496  eV     1   --> A              
     e( 30 - 30) =     19.83792  eV     1   --> A              
     e( 31 - 31) =     20.47128  eV     1   --> A              
     e( 32 - 32) =     20.86587  eV     1   --> A              
     e( 33 - 33) =     23.46196  eV     1   --> A              
     e( 34 - 34) =     25.67482  eV     1   --> A              
     e( 35 - 35) =     26.71840  eV     1   --> A              
     e( 36 - 36) =     26.87147  eV     1   --> A              
     e( 37 - 37) =     27.89083  eV     1   --> A              
     e( 38 - 38) =     28.77621  eV     1   --> A              
     e( 39 - 39) =     28.97798  eV     1   --> A              
     e( 40 - 40) =     29.06307  eV     1   --> A              

 **************************************************************************

 **************************************************************************

                    xk=(   0.44999,   0.37526,   0.00000  )

     Band symmetry, C_1 (1)     point group:

     e(  1 -  1) =    -44.21843  eV     1   --> A              
     e(  2 -  2) =    -44.20862  eV     1   --> A              
     e(  3 -  3) =    -20.60437  eV     1   --> A              
     e(  4 -  4) =    -20.59313  eV     1   --> A              
     e(  5 -  5) =    -20.57546  eV     1   --> A              
     e(  6 -  6) =    -20.47781  eV     1   --> A              
     e(  7 -  7) =    -20.46815  eV     1   --> A              
     e(  8 -  8) =    -20.46227  eV     1   --> A              
     e(  9 -  9) =     -0.77259  eV     1   --> A              
     e( 10 - 10) =     -0.48716  eV     1   --> A              
     e( 11 - 11) =      5.77546  eV     1   --> A              
     e( 12 - 12) =      7.02425  eV     1   --> A              
     e( 13 - 13) =      7.60172  eV     1   --> A              
     e( 14 - 14) =      8.24323  eV     1   --> A              
     e( 15 - 15) =      8.78917  eV     1   --> A              
     e( 16 - 16) =      9.31845  eV     1   --> A              
     e( 17 - 17) =     11.92897  eV     1   --> A              
     e( 18 - 18) =     12.33800  eV     1   --> A              
     e( 19 - 19) =     13.70879  eV     1   --> A              
     e( 20 - 20) =     14.69852  eV     1   --> A              
     e( 21 - 21) =     15.04464  eV     1   --> A              
     e( 22 - 22) =     15.04981  eV     1   --> A              
     e( 23 - 23) =     15.13289  eV     1   --> A              
     e( 24 - 24) =     15.84449  eV     1   --> A              
     e( 25 - 25) =     16.39150  eV     1   --> A              
     e( 26 - 26) =     16.77607  eV     1   --> A              
     e( 27 - 27) =     18.27482  eV     1   --> A              
     e( 28 - 28) =     18.80202  eV     1   --> A              
     e( 29 - 29) =     18.99023  eV     1   --> A              
     e( 30 - 30) =     19.88446  eV     1   --> A              
     e( 31 - 31) =     20.51933  eV     1   --> A              
     e( 32 - 32) =     20.88650  eV     1   --> A              
     e( 33 - 33) =     23.41483  eV     1   --> A              
     e( 34 - 34) =     25.56856  eV     1   --> A              
     e( 35 - 35) =     26.67222  eV     1   --> A              
     e( 36 - 36) =     26.75400  eV     1   --> A              
     e( 37 - 37) =     27.85615  eV     1   --> A              
     e( 38 - 38) =     28.86764  eV     1   --> A              
     e( 39 - 39) =     28.95073  eV     1   --> A              
     e( 40 - 40) =     29.13331  eV     1   --> A              

 **************************************************************************

 **************************************************************************

                    xk=(   0.44666,   0.38103,   0.00000  )

     Band symmetry, C_1 (1)     point group:

     e(  1 -  1) =    -44.21837  eV     1   --> A              
     e(  2 -  2) =    -44.20857  eV     1   --> A              
     e(  3 -  3) =    -20.60366  eV     1   --> A              
     e(  4 -  4) =    -20.59291  eV     1   --> A              
     e(  5 -  5) =    -20.57474  eV     1   --> A              
     e(  6 -  6) =    -20.47928  eV     1   --> A              
     e(  7 -  7) =    -20.46807  eV     1   --> A              
     e(  8 -  8) =    -20.46362  eV     1   --> A              
     e(  9 -  9) =     -0.76549  eV     1   --> A              
     e( 10 - 10) =     -0.48603  eV     1   --> A              
     e( 11 - 11) =      5.79095  eV     1   --> A              
     e( 12 - 12) =      7.02505  eV     1   --> A              
     e( 13 - 13) =      7.61158  eV     1   --> A              
     e( 14 - 14) =      8.23729  eV     1   --> A              
     e( 15 - 15) =      8.77277  eV     1   --> A              
     e( 16 - 16) =      9.23852  eV     1   --> A              
     e( 17 - 17) =     11.99047  eV     1   --> A              
     e( 18 - 18) =     12.35263  eV     1   --> A              
     e( 19 - 19) =     13.69930  eV     1   --> A              
     e( 20 - 20) =     14.67223  eV     1   --> A              
     e( 21 - 21) =     15.03249  eV     1   --> A              
     e( 22 - 22) =     15.05433  eV     1   --> A              
     e( 23 - 23) =     15.13125  eV     1   --> A              
     e( 24 - 24) =     15.85505  eV     1   --> A              
     e( 25 - 25) =     16.36244  eV     1   --> A              
     e( 26 - 26) =     16.76743  eV     1   --> A              
     e( 27 - 27) =     18.36471  eV     1   --> A              
     e( 28 - 28) =     18.73684  eV     1   --> A              
     e( 29 - 29) =     19.03790  eV     1   --> A              
     e( 30 - 30) =     19.93428  eV     1   --> A              
     e( 31 - 31) =     20.57049  eV     1   --> A              
     e( 32 - 32) =     20.90618  eV     1   --> A              
     e( 33 - 33) =     23.36569  eV     1   --> A              
     e( 34 - 34) =     25.46214  eV     1   --> A              
     e( 35 - 35) =     26.61944  eV     1   --> A              
     e( 36 - 36) =     26.63703  eV     1   --> A              
     e( 37 - 37) =     27.82620  eV     1   --> A              
     e( 38 - 38) =     28.92002  eV     1   --> A              
     e( 39 - 39) =     28.95823  eV     1   --> A              
     e( 40 - 40) =     29.20735  eV     1   --> A              

 **************************************************************************

 **************************************************************************

                    xk=(   0.44332,   0.38681,   0.00000  )

     Band symmetry, C_1 (1)     point group:

     e(  1 -  1) =    -44.21831  eV     1   --> A              
     e(  2 -  2) =    -44.20851  eV     1   --> A              
     e(  3 -  3) =    -20.60293  eV     1   --> A              
     e(  4 -  4) =    -20.59266  eV     1   --> A              
     e(  5 -  5) =    -20.57398  eV     1   --> A              
     e(  6 -  6) =    -20.48084  eV     1   --> A              
     e(  7 -  7) =    -20.46799  eV     1   --> A              
     e(  8 -  8) =    -20.46504  eV     1   --> A              
     e(  9 -  9) =     -0.75802  eV     1   --> A              
     e( 10 - 10) =     -0.48485  eV     1   --> A              
     e( 11 - 11) =      5.80741  eV     1   --> A              
     e( 12 - 12) =      7.02585  eV     1   --> A              
     e( 13 - 13) =      7.62195  eV     1   --> A              
     e( 14 - 14) =      8.23107  eV     1   --> A              
     e( 15 - 15) =      8.75571  eV     1   --> A              
     e( 16 - 16) =      9.15804  eV     1   --> A              
     e( 17 - 17) =     12.05191  eV     1   --> A              
     e( 18 - 18) =     12.36810  eV     1   --> A              
     e( 19 - 19) =     13.68890  eV     1   --> A              
     e( 20 - 20) =     14.64515  eV     1   --> A              
     e( 21 - 21) =     15.01935  eV     1   --> A              
     e( 22 - 22) =     15.06001  eV     1   --> A              
     e( 23 - 23) =     15.12950  eV     1   --> A              
     e( 24 - 24) =     15.86596  eV     1   --> A              
     e( 25 - 25) =     16.33521  eV     1   --> A              
     e( 26 - 26) =     16.75814  eV     1   --> A              
     e( 27 - 27) =     18.45521  eV     1   --> A              
     e( 28 - 28) =     18.67083  eV     1   --> A              
     e( 29 - 29) =     19.08785  eV     1   --> A              
     e( 30 - 30) =     19.98740  eV     1   --> A              
     e( 31 - 31) =     20.62470  eV     1   --> A              
     e( 32 - 32) =     20.92482  eV     1   --> A              
     e( 33 - 33) =     23.31472  eV     1   --> A              
     e( 34 - 34) =     25.35567  eV     1   --> A              
     e( 35 - 35) =     26.52059  eV     1   --> A              
     e( 36 - 36) =     26.56021  eV     1   --> A              
     e( 37 - 37) =     27.80095  eV     1   --> A              
     e( 38 - 38) =     28.88619  eV     1   --> A              
     e( 39 - 39) =     29.04784  eV     1   --> A              
     e( 40 - 40) =     29.28498  eV     1   --> A              

 **************************************************************************

 **************************************************************************

                    xk=(   0.43999,   0.39258,   0.00000  )

     Band symmetry, C_1 (1)     point group:

     e(  1 -  1) =    -44.21825  eV     1   --> A              
     e(  2 -  2) =    -44.20845  eV     1   --> A              
     e(  3 -  3) =    -20.60217  eV     1   --> A              
     e(  4 -  4) =    -20.59239  eV     1   --> A              
     e(  5 -  5) =    -20.57318  eV     1   --> A              
     e(  6 -  6) =    -20.48246  eV     1   --> A              
     e(  7 -  7) =    -20.46791  eV     1   --> A              
     e(  8 -  8) =    -20.46653  eV     1   --> A              
     e(  9 -  9) =     -0.75021  eV     1   --> A              
     e( 10 - 10) =     -0.48364  eV     1   --> A              
     e( 11 - 11) =      5.82483  eV     1   --> A              
     e( 12 - 12) =      7.02667  eV     1   --> A              
     e( 13 - 13) =      7.63280  eV     1   --> A              
     e( 14 - 14) =      8.22459  eV     1   --> A              
     e( 15 - 15) =      8.73807  eV     1   --> A              
     e( 16 - 16) =      9.07718  eV     1   --> A              
     e( 17 - 17) =     12.11322  eV     1   --> A              
     e( 18 - 18) =     12.38438  eV     1   --> A              
     e( 19 - 19) =     13.67758  eV     1   --> A              
     e( 20 - 20) =     14.61739  eV     1   --> A              
     e( 21 - 21) =     15.00520  eV     1   --> A              
     e( 22 - 22) =     15.06694  eV     1   --> A              
     e( 23 - 23) =     15.12761  eV     1   --> A              
     e( 24 - 24) =     15.87715  eV     1   --> A              
     e( 25 - 25) =     16.30972  eV     1   --> A              
     e( 26 - 26) =     16.74819  eV     1   --> A              
     e( 27 - 27) =     18.54617  eV     1   --> A              
     e( 28 - 28) =     18.60423  eV     1   --> A              
     e( 29 - 29) =     19.13996  eV     1   --> A              
     e( 30 - 30) =     20.04385  eV     1   --> A              
     e( 31 - 31) =     20.68190  eV     1   --> A              
     e( 32 - 32) =     20.94233  eV     1   --> A              
     e( 33 - 33) =     23.26209  eV     1   --> A              
     e( 34 - 34) =     25.24928  eV     1   --> A              
     e( 35 - 35) =     26.40474  eV     1   --> A              
     e( 36 - 36) =     26.49487  eV     1   --> A              
     e( 37 - 37) =     27.78016  eV     1   --> A              
     e( 38 - 38) =     28.84959  eV     1   --> A              
     e( 39 - 39) =     29.13638  eV     1   --> A              
     e( 40 - 40) =     29.36596  eV     1   --> A              

 **************************************************************************

 **************************************************************************

                    xk=(   0.43665,   0.39835,   0.00000  )

     Band symmetry, C_1 (1)     point group:

     e(  1 -  1) =    -44.21819  eV     1   --> A              
     e(  2 -  2) =    -44.20839  eV     1   --> A              
     e(  3 -  3) =    -20.60139  eV     1   --> A              
     e(  4 -  4) =    -20.59208  eV     1   --> A              
     e(  5 -  5) =    -20.57234  eV     1   --> A              
     e(  6 -  6) =    -20.48416  eV     1   --> A              
     e(  7 -  7) =    -20.46809  eV     1   --> A              
     e(  8 -  8) =    -20.46782  eV     1   --> A              
     e(  9 -  9) =     -0.74206  eV     1   --> A              
     e( 10 - 10) =     -0.48241  eV     1   --> A              
     e( 11 - 11) =      5.84319  eV     1   --> A              
     e( 12 - 12) =      7.02748  eV     1   --> A              
     e( 13 - 13) =      7.64410  eV     1   --> A              
     e( 14 - 14) =      8.21787  eV     1   --> A              
     e( 15 - 15) =      8.71992  eV     1   --> A              
     e( 16 - 16) =      8.99608  eV     1   --> A              
     e( 17 - 17) =     12.17436  eV     1   --> A              
     e( 18 - 18) =     12.40144  eV     1   --> A              
     e( 19 - 19) =     13.66535  eV     1   --> A              
     e( 20 - 20) =     14.58908  eV     1   --> A              
     e( 21 - 21) =     14.99003  eV     1   --> A              
     e( 22 - 22) =     15.07518  eV     1   --> A              
     e( 23 - 23) =     15.12559  eV     1   --> A              
     e( 24 - 24) =     15.88856  eV     1   --> A              
     e( 25 - 25) =     16.28591  eV     1   --> A              
     e( 26 - 26) =     16.73756  eV     1   --> A              
     e( 27 - 27) =     18.53729  eV     1   --> A              
     e( 28 - 28) =     18.63744  eV     1   --> A              
     e( 29 - 29) =     19.19413  eV     1   --> A              
     e( 30 - 30) =     20.10366  eV     1   --> A              
     e( 31 - 31) =     20.74200  eV     1   --> A              
     e( 32 - 32) =     20.95867  eV     1   --> A              
     e( 33 - 33) =     23.20797  eV     1   --> A              
     e( 34 - 34) =     25.14305  eV     1   --> A              
     e( 35 - 35) =     26.28951  eV     1   --> A              
     e( 36 - 36) =     26.42389  eV     1   --> A              
     e( 37 - 37) =     27.76345  eV     1   --> A              
     e( 38 - 38) =     28.81058  eV     1   --> A              
     e( 39 - 39) =     29.22375  eV     1   --> A              
     e( 40 - 40) =     29.45006  eV     1   --> A              

 **************************************************************************

 **************************************************************************

                    xk=(   0.43332,   0.40412,   0.00000  )

     Band symmetry, C_1 (1)     point group:

     e(  1 -  1) =    -44.21812  eV     1   --> A              
     e(  2 -  2) =    -44.20833  eV     1   --> A              
     e(  3 -  3) =    -20.60059  eV     1   --> A              
     e(  4 -  4) =    -20.59174  eV     1   --> A              
     e(  5 -  5) =    -20.57146  eV     1   --> A              
     e(  6 -  6) =    -20.48593  eV     1   --> A              
     e(  7 -  7) =    -20.46971  eV     1   --> A              
     e(  8 -  8) =    -20.46773  eV     1   --> A              
     e(  9 -  9) =     -0.73360  eV     1   --> A              
     e( 10 - 10) =     -0.48116  eV     1   --> A              
     e( 11 - 11) =      5.86249  eV     1   --> A              
     e( 12 - 12) =      7.02828  eV     1   --> A              
     e( 13 - 13) =      7.65582  eV     1   --> A              
     e( 14 - 14) =      8.21092  eV     1   --> A              
     e( 15 - 15) =      8.70134  eV     1   --> A              
     e( 16 - 16) =      8.91489  eV     1   --> A              
     e( 17 - 17) =     12.23529  eV     1   --> A              
     e( 18 - 18) =     12.41926  eV     1   --> A              
     e( 19 - 19) =     13.65221  eV     1   --> A              
     e( 20 - 20) =     14.56033  eV     1   --> A              
     e( 21 - 21) =     14.97385  eV     1   --> A              
     e( 22 - 22) =     15.08480  eV     1   --> A              
     e( 23 - 23) =     15.12343  eV     1   --> A              
     e( 24 - 24) =     15.90012  eV     1   --> A              
     e( 25 - 25) =     16.26369  eV     1   --> A              
     e( 26 - 26) =     16.72622  eV     1   --> A              
     e( 27 - 27) =     18.47023  eV     1   --> A              
     e( 28 - 28) =     18.72887  eV     1   --> A              
     e( 29 - 29) =     19.25023  eV     1   --> A              
     e( 30 - 30) =     20.16684  eV     1   --> A              
     e( 31 - 31) =     20.80491  eV     1   --> A              
     e( 32 - 32) =     20.97381  eV     1   --> A              
     e( 33 - 33) =     23.15250  eV     1   --> A              
     e( 34 - 34) =     25.03709  eV     1   --> A              
     e( 35 - 35) =     26.17493  eV     1   --> A              
     e( 36 - 36) =     26.34781  eV     1   --> A              
     e( 37 - 37) =     27.75036  eV     1   --> A              
     e( 38 - 38) =     28.76952  eV     1   --> A              
     e( 39 - 39) =     29.30989  eV     1   --> A              
     e( 40 - 40) =     29.53701  eV     1   --> A              

 **************************************************************************

 **************************************************************************

                    xk=(   0.42999,   0.40989,   0.00000  )

     Band symmetry, C_1 (1)     point group:

     e(  1 -  1) =    -44.21805  eV     1   --> A              
     e(  2 -  2) =    -44.20826  eV     1   --> A              
     e(  3 -  3) =    -20.59980  eV     1   --> A              
     e(  4 -  4) =    -20.59135  eV     1   --> A              
     e(  5 -  5) =    -20.57053  eV     1   --> A              
     e(  6 -  6) =    -20.48776  eV     1   --> A              
     e(  7 -  7) =    -20.47139  eV     1   --> A              
     e(  8 -  8) =    -20.46764  eV     1   --> A              
     e(  9 -  9) =     -0.72485  eV     1   --> A              
     e( 10 - 10) =     -0.47990  eV     1   --> A              
     e( 11 - 11) =      5.88272  eV     1   --> A              
     e( 12 - 12) =      7.02907  eV     1   --> A              
     e( 13 - 13) =      7.66793  eV     1   --> A              
     e( 14 - 14) =      8.20377  eV     1   --> A              
     e( 15 - 15) =      8.68238  eV     1   --> A              
     e( 16 - 16) =      8.83373  eV     1   --> A              
     e( 17 - 17) =     12.29597  eV     1   --> A              
     e( 18 - 18) =     12.43780  eV     1   --> A              
     e( 19 - 19) =     13.63818  eV     1   --> A              
     e( 20 - 20) =     14.53123  eV     1   --> A              
     e( 21 - 21) =     14.95667  eV     1   --> A              
     e( 22 - 22) =     15.09583  eV     1   --> A              
     e( 23 - 23) =     15.12114  eV     1   --> A              
     e( 24 - 24) =     15.91175  eV     1   --> A              
     e( 25 - 25) =     16.24299  eV     1   --> A              
     e( 26 - 26) =     16.71414  eV     1   --> A              
     e( 27 - 27) =     18.40327  eV     1   --> A              
     e( 28 - 28) =     18.82028  eV     1   --> A              
     e( 29 - 29) =     19.30815  eV     1   --> A              
     e( 30 - 30) =     20.23340  eV     1   --> A              
     e( 31 - 31) =     20.87054  eV     1   --> A              
     e( 32 - 32) =     20.98771  eV     1   --> A              
     e( 33 - 33) =     23.09585  eV     1   --> A              
     e( 34 - 34) =     24.93147  eV     1   --> A              
     e( 35 - 35) =     26.06105  eV     1   --> A              
     e( 36 - 36) =     26.26720  eV     1   --> A              
     e( 37 - 37) =     27.74039  eV     1   --> A              
     e( 38 - 38) =     28.72677  eV     1   --> A              
     e( 39 - 39) =     29.39471  eV     1   --> A              
     e( 40 - 40) =     29.62651  eV     1   --> A              

 **************************************************************************

 **************************************************************************

                    xk=(   0.42665,   0.41567,   0.00000  )

     Band symmetry, C_1 (1)     point group:

     e(  1 -  1) =    -44.21798  eV     1   --> A              
     e(  2 -  2) =    -44.20820  eV     1   --> A              
     e(  3 -  3) =    -20.59901  eV     1   --> A              
     e(  4 -  4) =    -20.59091  eV     1   --> A              
     e(  5 -  5) =    -20.56956  eV     1   --> A              
     e(  6 -  6) =    -20.48966  eV     1   --> A              
     e(  7 -  7) =    -20.47312  eV     1   --> A              
     e(  8 -  8) =    -20.46755  eV     1   --> A              
     e(  9 -  9) =     -0.71583  eV     1   --> A              
     e( 10 - 10) =     -0.47864  eV     1   --> A              
     e( 11 - 11) =      5.90388  eV     1   --> A              
     e( 12 - 12) =      7.02983  eV     1   --> A              
     e( 13 - 13) =      7.68041  eV     1   --> A              
     e( 14 - 14) =      8.19644  eV     1   --> A              
     e( 15 - 15) =      8.66314  eV     1   --> A              
     e( 16 - 16) =      8.75270  eV     1   --> A              
     e( 17 - 17) =     12.35641  eV     1   --> A              
     e( 18 - 18) =     12.45704  eV     1   --> A              
     e( 19 - 19) =     13.62329  eV     1   --> A              
     e( 20 - 20) =     14.50190  eV     1   --> A              
     e( 21 - 21) =     14.93849  eV     1   --> A              
     e( 22 - 22) =     15.10832  eV     1   --> A              
     e( 23 - 23) =     15.11871  eV     1   --> A              
     e( 24 - 24) =     15.92339  eV     1   --> A              
     e( 25 - 25) =     16.22373  eV     1   --> A              
     e( 26 - 26) =     16.70129  eV     1   --> A              
     e( 27 - 27) =     18.33662  eV     1   --> A              
     e( 28 - 28) =     18.91155  eV     1   --> A              
     e( 29 - 29) =     19.36778  eV     1   --> A              
     e( 30 - 30) =     20.30336  eV     1   --> A              
     e( 31 - 31) =     20.93874  eV     1   --> A              
     e( 32 - 32) =     21.00038  eV     1   --> A              
     e( 33 - 33) =     23.03818  eV     1   --> A              
     e( 34 - 34) =     24.82630  eV     1   --> A              
     e( 35 - 35) =     25.94791  eV     1   --> A              
     e( 36 - 36) =     26.18263  eV     1   --> A              
     e( 37 - 37) =     27.73306  eV     1   --> A              
     e( 38 - 38) =     28.68267  eV     1   --> A              
     e( 39 - 39) =     29.47817  eV     1   --> A              
     e( 40 - 40) =     29.71824  eV     1   --> A              

 **************************************************************************

 **************************************************************************

                    xk=(   0.42332,   0.42144,   0.00000  )

     Band symmetry, C_1 (1)     point group:

     e(  1 -  1) =    -44.21791  eV     1   --> A              
     e(  2 -  2) =    -44.20813  eV     1   --> A              
     e(  3 -  3) =    -20.59825  eV     1   --> A              
     e(  4 -  4) =    -20.59039  eV     1   --> A              
     e(  5 -  5) =    -20.56856  eV     1   --> A              
     e(  6 -  6) =    -20.49161  eV     1   --> A              
     e(  7 -  7) =    -20.47491  eV     1   --> A              
     e(  8 -  8) =    -20.46746  eV     1   --> A              
     e(  9 -  9) =     -0.70656  eV     1   --> A              
     e( 10 - 10) =     -0.47739  eV     1   --> A              
     e( 11 - 11) =      5.92594  eV     1   --> A              
     e( 12 - 12) =      7.03056  eV     1   --> A              
     e( 13 - 13) =      7.69321  eV     1   --> A              
     e( 14 - 14) =      8.18894  eV     1   --> A              
     e( 15 - 15) =      8.64369  eV     1   --> A              
     e( 16 - 16) =      8.67193  eV     1   --> A              
     e( 17 - 17) =     12.41658  eV     1   --> A              
     e( 18 - 18) =     12.47695  eV     1   --> A              
     e( 19 - 19) =     13.60757  eV     1   --> A              
     e( 20 - 20) =     14.47244  eV     1   --> A              
     e( 21 - 21) =     14.91931  eV     1   --> A              
     e( 22 - 22) =     15.11614  eV     1   --> A              
     e( 23 - 23) =     15.12227  eV     1   --> A              
     e( 24 - 24) =     15.93497  eV     1   --> A              
     e( 25 - 25) =     16.20585  eV     1   --> A              
     e( 26 - 26) =     16.68764  eV     1   --> A              
     e( 27 - 27) =     18.27051  eV     1   --> A              
     e( 28 - 28) =     19.00251  eV     1   --> A              
     e( 29 - 29) =     19.42900  eV     1   --> A              
     e( 30 - 30) =     20.37671  eV     1   --> A              
     e( 31 - 31) =     21.00939  eV     1   --> A              
     e( 32 - 32) =     21.01181  eV     1   --> A              
     e( 33 - 33) =     22.97965  eV     1   --> A              
     e( 34 - 34) =     24.72164  eV     1   --> A              
     e( 35 - 35) =     25.83553  eV     1   --> A              
     e( 36 - 36) =     26.09464  eV     1   --> A              
     e( 37 - 37) =     27.72790  eV     1   --> A              
     e( 38 - 38) =     28.63756  eV     1   --> A              
     e( 39 - 39) =     29.56020  eV     1   --> A              
     e( 40 - 40) =     29.81187  eV     1   --> A              

 **************************************************************************

 **************************************************************************

                    xk=(   0.41998,   0.42721,   0.00000  )

     Band symmetry, C_1 (1)     point group:

     e(  1 -  1) =    -44.21784  eV     1   --> A              
     e(  2 -  2) =    -44.20806  eV     1   --> A              
     e(  3 -  3) =    -20.59751  eV     1   --> A              
     e(  4 -  4) =    -20.58980  eV     1   --> A              
     e(  5 -  5) =    -20.56751  eV     1   --> A              
     e(  6 -  6) =    -20.49362  eV     1   --> A              
     e(  7 -  7) =    -20.47675  eV     1   --> A              
     e(  8 -  8) =    -20.46736  eV     1   --> A              
     e(  9 -  9) =     -0.69708  eV     1   --> A              
     e( 10 - 10) =     -0.47615  eV     1   --> A              
     e( 11 - 11) =      5.94890  eV     1   --> A              
     e( 12 - 12) =      7.03125  eV     1   --> A              
     e( 13 - 13) =      7.70630  eV     1   --> A              
     e( 14 - 14) =      8.18131  eV     1   --> A              
     e( 15 - 15) =      8.59151  eV     1   --> A              
     e( 16 - 16) =      8.62411  eV     1   --> A              
     e( 17 - 17) =     12.47648  eV     1   --> A              
     e( 18 - 18) =     12.49749  eV     1   --> A              
     e( 19 - 19) =     13.59108  eV     1   --> A              
     e( 20 - 20) =     14.44294  eV     1   --> A              
     e( 21 - 21) =     14.89917  eV     1   --> A              
     e( 22 - 22) =     15.11343  eV     1   --> A              
     e( 23 - 23) =     15.13769  eV     1   --> A              
     e( 24 - 24) =     15.94644  eV     1   --> A              
     e( 25 - 25) =     16.18928  eV     1   --> A              
     e( 26 - 26) =     16.67316  eV     1   --> A              
     e( 27 - 27) =     18.20511  eV     1   --> A              
     e( 28 - 28) =     19.09306  eV     1   --> A              
     e( 29 - 29) =     19.49169  eV     1   --> A              
     e( 30 - 30) =     20.45343  eV     1   --> A              
     e( 31 - 31) =     21.02201  eV     1   --> A              
     e( 32 - 32) =     21.08232  eV     1   --> A              
     e( 33 - 33) =     22.92042  eV     1   --> A              
     e( 34 - 34) =     24.61760  eV     1   --> A              
     e( 35 - 35) =     25.72397  eV     1   --> A              
     e( 36 - 36) =     26.00372  eV     1   --> A              
     e( 37 - 37) =     27.72450  eV     1   --> A              
     e( 38 - 38) =     28.59179  eV     1   --> A              
     e( 39 - 39) =     29.64077  eV     1   --> A              
     e( 40 - 40) =     29.77318  eV     1   --> A              

 **************************************************************************

 **************************************************************************

                    xk=(   0.41665,   0.43298,   0.00000  )

     Band symmetry, C_1 (1)     point group:

     e(  1 -  1) =    -44.21777  eV     1   --> A              
     e(  2 -  2) =    -44.20799  eV     1   --> A              
     e(  3 -  3) =    -20.59682  eV     1   --> A              
     e(  4 -  4) =    -20.58912  eV     1   --> A              
     e(  5 -  5) =    -20.56643  eV     1   --> A              
     e(  6 -  6) =    -20.49568  eV     1   --> A              
     e(  7 -  7) =    -20.47864  eV     1   --> A              
     e(  8 -  8) =    -20.46726  eV     1   --> A              
     e(  9 -  9) =     -0.68740  eV     1   --> A              
     e( 10 - 10) =     -0.47493  eV     1   --> A              
     e( 11 - 11) =      5.97275  eV     1   --> A              
     e( 12 - 12) =      7.03188  eV     1   --> A              
     e( 13 - 13) =      7.71966  eV     1   --> A              
     e( 14 - 14) =      8.17355  eV     1   --> A              
     e( 15 - 15) =      8.51155  eV     1   --> A              
     e( 16 - 16) =      8.60448  eV     1   --> A              
     e( 17 - 17) =     12.51861  eV     1   --> A              
     e( 18 - 18) =     12.53612  eV     1   --> A              
     e( 19 - 19) =     13.57384  eV     1   --> A              
     e( 20 - 20) =     14.41348  eV     1   --> A              
     e( 21 - 21) =     14.87807  eV     1   --> A              
     e( 22 - 22) =     15.11059  eV     1   --> A              
     e( 23 - 23) =     15.15457  eV     1   --> A              
     e( 24 - 24) =     15.95772  eV     1   --> A              
     e( 25 - 25) =     16.17395  eV     1   --> A              
     e( 26 - 26) =     16.65778  eV     1   --> A              
     e( 27 - 27) =     18.14065  eV     1   --> A              
     e( 28 - 28) =     19.18306  eV     1   --> A              
     e( 29 - 29) =     19.55574  eV     1   --> A              
     e( 30 - 30) =     20.53349  eV     1   --> A              
     e( 31 - 31) =     21.03100  eV     1   --> A              
     e( 32 - 32) =     21.15734  eV     1   --> A              
     e( 33 - 33) =     22.86067  eV     1   --> A              
     e( 34 - 34) =     24.51424  eV     1   --> A              
     e( 35 - 35) =     25.61325  eV     1   --> A              
     e( 36 - 36) =     25.91032  eV     1   --> A              
     e( 37 - 37) =     27.72251  eV     1   --> A              
     e( 38 - 38) =     28.54566  eV     1   --> A              
     e( 39 - 39) =     29.69889  eV     1   --> A              
     e( 40 - 40) =     29.71981  eV     1   --> A              

 **************************************************************************

 **************************************************************************

                    xk=(   0.41332,   0.43876,   0.00000  )

     Band symmetry, C_1 (1)     point group:

     e(  1 -  1) =    -44.21770  eV     1   --> A              
     e(  2 -  2) =    -44.20792  eV     1   --> A              
     e(  3 -  3) =    -20.59619  eV     1   --> A              
     e(  4 -  4) =    -20.58835  eV     1   --> A              
     e(  5 -  5) =    -20.56531  eV     1   --> A              
     e(  6 -  6) =    -20.49779  eV     1   --> A              
     e(  7 -  7) =    -20.48057  eV     1   --> A              
     e(  8 -  8) =    -20.46717  eV     1   --> A              
     e(  9 -  9) =     -0.67755  eV     1   --> A              
     e( 10 - 10) =     -0.47375  eV     1   --> A              
     e( 11 - 11) =      5.99747  eV     1   --> A              
     e( 12 - 12) =      7.03246  eV     1   --> A              
     e( 13 - 13) =      7.73323  eV     1   --> A              
     e( 14 - 14) =      8.16569  eV     1   --> A              
     e( 15 - 15) =      8.43213  eV     1   --> A              
     e( 16 - 16) =      8.58486  eV     1   --> A              
     e( 17 - 17) =     12.54028  eV     1   --> A              
     e( 18 - 18) =     12.59550  eV     1   --> A              
     e( 19 - 19) =     13.55593  eV     1   --> A              
     e( 20 - 20) =     14.38413  eV     1   --> A              
     e( 21 - 21) =     14.85602  eV     1   --> A              
     e( 22 - 22) =     15.10762  eV     1   --> A              
     e( 23 - 23) =     15.17291  eV     1   --> A              
     e( 24 - 24) =     15.96875  eV     1   --> A              
     e( 25 - 25) =     16.15982  eV     1   --> A              
     e( 26 - 26) =     16.64147  eV     1   --> A              
     e( 27 - 27) =     18.07731  eV     1   --> A              
     e( 28 - 28) =     19.27242  eV     1   --> A              
     e( 29 - 29) =     19.62103  eV     1   --> A              
     e( 30 - 30) =     20.61683  eV     1   --> A              
     e( 31 - 31) =     21.03882  eV     1   --> A              
     e( 32 - 32) =     21.23419  eV     1   --> A              
     e( 33 - 33) =     22.80059  eV     1   --> A              
     e( 34 - 34) =     24.41165  eV     1   --> A              
     e( 35 - 35) =     25.50342  eV     1   --> A              
     e( 36 - 36) =     25.81484  eV     1   --> A              
     e( 37 - 37) =     27.72156  eV     1   --> A              
     e( 38 - 38) =     28.49950  eV     1   --> A              
     e( 39 - 39) =     29.62213  eV     1   --> A              
     e( 40 - 40) =     29.79729  eV     1   --> A              

 **************************************************************************

 **************************************************************************

                    xk=(   0.40998,   0.44453,   0.00000  )

     Band symmetry, C_1 (1)     point group:

     e(  1 -  1) =    -44.21762  eV     1   --> A              
     e(  2 -  2) =    -44.20785  eV     1   --> A              
     e(  3 -  3) =    -20.59562  eV     1   --> A              
     e(  4 -  4) =    -20.58747  eV     1   --> A              
     e(  5 -  5) =    -20.56416  eV     1   --> A              
     e(  6 -  6) =    -20.49994  eV     1   --> A              
     e(  7 -  7) =    -20.48254  eV     1   --> A              
     e(  8 -  8) =    -20.46707  eV     1   --> A              
     e(  9 -  9) =     -0.66756  eV     1   --> A              
     e( 10 - 10) =     -0.47261  eV     1   --> A              
     e( 11 - 11) =      6.02305  eV     1   --> A              
     e( 12 - 12) =      7.03297  eV     1   --> A              
     e( 13 - 13) =      7.74698  eV     1   --> A              
     e( 14 - 14) =      8.15776  eV     1   --> A              
[...]
     e( 33 - 34) =     23.51363  eV     2   -->   2 A              
     e( 35 - 36) =     25.29778  eV     2   -->   2 A              
     e( 37 - 38) =     26.90311  eV     2   -->   2 A              
     e( 39 - 40) =     30.80188  eV     2   -->   2 A              

 **************************************************************************

 **************************************************************************

                    xk=(   0.36331,   0.52534,   0.25043  )

     Band symmetry, C_1 (1)     point group:

     e(  1 -  1) =    -44.21202  eV     1   --> A              
     e(  2 -  2) =    -44.21169  eV     1   --> A              
     e(  3 -  3) =    -20.55656  eV     1   --> A              
     e(  4 -  4) =    -20.55624  eV     1   --> A              
     e(  5 -  5) =    -20.52920  eV     1   --> A              
     e(  6 -  6) =    -20.52889  eV     1   --> A              
     e(  7 -  7) =    -20.52215  eV     1   --> A              
     e(  8 -  8) =    -20.52183  eV     1   --> A              
     e(  9 - 10) =     -0.49769  eV     2   -->   2 A              
     e( 11 - 12) =      6.82986  eV     2   -->   2 A              
     e( 13 - 14) =      7.65878  eV     2   -->   2 A              
     e( 15 - 16) =      8.05192  eV     2   -->   2 A              
     e( 17 - 18) =     12.68042  eV     2   -->   2 A              
     e( 19 - 19) =     14.54927  eV     1   --> A              
     e( 20 - 20) =     14.54944  eV     1   --> A              
     e( 21 - 21) =     14.68402  eV     1   --> A              
     e( 22 - 22) =     14.68414  eV     1   --> A              
     e( 23 - 24) =     14.98717  eV     2   -->   2 A              
     e( 25 - 26) =     17.03696  eV     2   -->   2 A              
     e( 27 - 28) =     18.64739  eV     2   -->   2 A              
     e( 29 - 30) =     19.68988  eV     2   -->   2 A              
     e( 31 - 32) =     22.12127  eV     2   -->   2 A              
     e( 33 - 34) =     23.48281  eV     2   -->   2 A              
     e( 35 - 36) =     25.30882  eV     2   -->   2 A              
     e( 37 - 38) =     26.85271  eV     2   -->   2 A              
     e( 39 - 40) =     30.78203  eV     2   -->   2 A              

 **************************************************************************

 **************************************************************************

                    xk=(   0.35997,   0.53111,   0.25043  )

     Band symmetry, C_1 (1)     point group:

     e(  1 -  1) =    -44.21198  eV     1   --> A              
     e(  2 -  2) =    -44.21164  eV     1   --> A              
     e(  3 -  3) =    -20.55489  eV     1   --> A              
     e(  4 -  4) =    -20.55457  eV     1   --> A              
     e(  5 -  5) =    -20.52913  eV     1   --> A              
     e(  6 -  6) =    -20.52882  eV     1   --> A              
     e(  7 -  7) =    -20.52430  eV     1   --> A              
     e(  8 -  8) =    -20.52399  eV     1   --> A              
     e(  9 - 10) =     -0.49407  eV     2   -->   2 A              
     e( 11 - 12) =      6.85764  eV     2   -->   2 A              
     e( 13 - 14) =      7.61563  eV     2   -->   2 A              
     e( 15 - 16) =      8.05042  eV     2   -->   2 A              
     e( 17 - 18) =     12.69072  eV     2   -->   2 A              
     e( 19 - 19) =     14.55389  eV     1   --> A              
     e( 20 - 20) =     14.55407  eV     1   --> A              
     e( 21 - 21) =     14.68821  eV     1   --> A              
     e( 22 - 22) =     14.68833  eV     1   --> A              
     e( 23 - 24) =     14.96951  eV     2   -->   2 A              
     e( 25 - 26) =     17.05025  eV     2   -->   2 A              
     e( 27 - 28) =     18.69463  eV     2   -->   2 A              
     e( 29 - 30) =     19.62779  eV     2   -->   2 A              
     e( 31 - 32) =     22.16884  eV     2   -->   2 A              
     e( 33 - 34) =     23.45417  eV     2   -->   2 A              
     e( 35 - 36) =     25.32151  eV     2   -->   2 A              
     e( 37 - 38) =     26.80415  eV     2   -->   2 A              
     e( 39 - 40) =     30.76386  eV     2   -->   2 A              

 **************************************************************************

 **************************************************************************

                    xk=(   0.35664,   0.53689,   0.25043  )

     Band symmetry, C_1 (1)     point group:

     e(  1 -  1) =    -44.21194  eV     1   --> A              
     e(  2 -  2) =    -44.21160  eV     1   --> A              
     e(  3 -  3) =    -20.55320  eV     1   --> A              
     e(  4 -  4) =    -20.55288  eV     1   --> A              
     e(  5 -  5) =    -20.52908  eV     1   --> A              
     e(  6 -  6) =    -20.52879  eV     1   --> A              
     e(  7 -  7) =    -20.52641  eV     1   --> A              
     e(  8 -  8) =    -20.52610  eV     1   --> A              
     e(  9 - 10) =     -0.49078  eV     2   -->   2 A              
     e( 11 - 12) =      6.88472  eV     2   -->   2 A              
     e( 13 - 14) =      7.57485  eV     2   -->   2 A              
     e( 15 - 16) =      8.04906  eV     2   -->   2 A              
     e( 17 - 18) =     12.69973  eV     2   -->   2 A              
     e( 19 - 19) =     14.55939  eV     1   --> A              
     e( 20 - 20) =     14.55958  eV     1   --> A              
     e( 21 - 21) =     14.69274  eV     1   --> A              
     e( 22 - 22) =     14.69285  eV     1   --> A              
     e( 23 - 24) =     14.95189  eV     2   -->   2 A              
     e( 25 - 26) =     17.06241  eV     2   -->   2 A              
     e( 27 - 28) =     18.73980  eV     2   -->   2 A              
     e( 29 - 30) =     19.56893  eV     2   -->   2 A              
     e( 31 - 32) =     22.21201  eV     2   -->   2 A              
     e( 33 - 34) =     23.42817  eV     2   -->   2 A              
     e( 35 - 36) =     25.33546  eV     2   -->   2 A              
     e( 37 - 38) =     26.75801  eV     2   -->   2 A              
     e( 39 - 40) =     30.74749  eV     2   -->   2 A              

 **************************************************************************

 **************************************************************************

                    xk=(   0.35330,   0.54266,   0.25043  )

     Band symmetry, C_1 (1)     point group:

     e(  1 -  1) =    -44.21191  eV     1   --> A              
     e(  2 -  2) =    -44.21157  eV     1   --> A              
     e(  3 -  3) =    -20.55150  eV     1   --> A              
     e(  4 -  4) =    -20.55118  eV     1   --> A              
     e(  5 -  5) =    -20.52914  eV     1   --> A              
     e(  6 -  6) =    -20.52903  eV     1   --> A              
     e(  7 -  7) =    -20.52820  eV     1   --> A              
     e(  8 -  8) =    -20.52808  eV     1   --> A              
     e(  9 - 10) =     -0.48785  eV     2   -->   2 A              
     e( 11 - 12) =      6.91068  eV     2   -->   2 A              
     e( 13 - 14) =      7.53691  eV     2   -->   2 A              
     e( 15 - 16) =      8.04785  eV     2   -->   2 A              
     e( 17 - 18) =     12.70746  eV     2   -->   2 A              
     e( 19 - 19) =     14.56563  eV     1   --> A              
     e( 20 - 20) =     14.56583  eV     1   --> A              
     e( 21 - 21) =     14.69742  eV     1   --> A              
     e( 22 - 22) =     14.69753  eV     1   --> A              
     e( 23 - 24) =     14.93463  eV     2   -->   2 A              
     e( 25 - 26) =     17.07333  eV     2   -->   2 A              
     e( 27 - 28) =     18.78249  eV     2   -->   2 A              
     e( 29 - 30) =     19.51386  eV     2   -->   2 A              
     e( 31 - 32) =     22.25022  eV     2   -->   2 A              
     e( 33 - 34) =     23.40523  eV     2   -->   2 A              
     e( 35 - 36) =     25.35019  eV     2   -->   2 A              
     e( 37 - 38) =     26.71498  eV     2   -->   2 A              
     e( 39 - 40) =     30.73303  eV     2   -->   2 A              

 **************************************************************************

 **************************************************************************

                    xk=(   0.34997,   0.54843,   0.25043  )

     Band symmetry, C_1 (1)     point group:

     e(  1 -  1) =    -44.21188  eV     1   --> A              
     e(  2 -  2) =    -44.21154  eV     1   --> A              
     e(  3 -  3) =    -20.54979  eV     1   --> A              
     e(  4 -  4) =    -20.54947  eV     1   --> A              
     e(  5 -  5) =    -20.53073  eV     1   --> A              
     e(  6 -  6) =    -20.53043  eV     1   --> A              
     e(  7 -  7) =    -20.52881  eV     1   --> A              
     e(  8 -  8) =    -20.52852  eV     1   --> A              
     e(  9 - 10) =     -0.48531  eV     2   -->   2 A              
     e( 11 - 12) =      6.93498  eV     2   -->   2 A              
     e( 13 - 14) =      7.50238  eV     2   -->   2 A              
     e( 15 - 16) =      8.04679  eV     2   -->   2 A              
     e( 17 - 18) =     12.71392  eV     2   -->   2 A              
     e( 19 - 19) =     14.57240  eV     1   --> A              
     e( 20 - 20) =     14.57260  eV     1   --> A              
     e( 21 - 22) =     14.70200  eV     2   -->   2 A              
     e( 23 - 24) =     14.91812  eV     2   -->   2 A              
     e( 25 - 26) =     17.08289  eV     2   -->   2 A              
     e( 27 - 28) =     18.82207  eV     2   -->   2 A              
     e( 29 - 30) =     19.46333  eV     2   -->   2 A              
     e( 31 - 32) =     22.28297  eV     2   -->   2 A              
     e( 33 - 34) =     23.38571  eV     2   -->   2 A              
     e( 35 - 36) =     25.36506  eV     2   -->   2 A              
     e( 37 - 38) =     26.67586  eV     2   -->   2 A              
     e( 39 - 40) =     30.72057  eV     2   -->   2 A              

 **************************************************************************

 **************************************************************************

                    xk=(   0.34664,   0.55420,   0.25043  )

     Band symmetry, C_1 (1)     point group:

     e(  1 -  1) =    -44.21185  eV     1   --> A              
     e(  2 -  2) =    -44.21151  eV     1   --> A              
     e(  3 -  3) =    -20.54807  eV     1   --> A              
     e(  4 -  4) =    -20.54775  eV     1   --> A              
     e(  5 -  5) =    -20.53270  eV     1   --> A              
     e(  6 -  6) =    -20.53238  eV     1   --> A              
     e(  7 -  7) =    -20.52882  eV     1   --> A              
     e(  8 -  8) =    -20.52851  eV     1   --> A              
     e(  9 - 10) =     -0.48317  eV     2   -->   2 A              
     e( 11 - 12) =      6.95691  eV     2   -->   2 A              
     e( 13 - 14) =      7.47203  eV     2   -->   2 A              
     e( 15 - 16) =      8.04590  eV     2   -->   2 A              
     e( 17 - 18) =     12.71913  eV     2   -->   2 A              
     e( 19 - 19) =     14.57940  eV     1   --> A              
     e( 20 - 20) =     14.57961  eV     1   --> A              
     e( 21 - 22) =     14.70615  eV     2   -->   2 A              
     e( 23 - 24) =     14.90294  eV     2   -->   2 A              
     e( 25 - 26) =     17.09097  eV     2   -->   2 A              
     e( 27 - 28) =     18.85765  eV     2   -->   2 A              
     e( 29 - 30) =     19.41841  eV     2   -->   2 A              
     e( 31 - 32) =     22.30984  eV     2   -->   2 A              
     e( 33 - 34) =     23.36989  eV     2   -->   2 A              
     e( 35 - 36) =     25.37933  eV     2   -->   2 A              
     e( 37 - 38) =     26.64154  eV     2   -->   2 A              
     e( 39 - 40) =     30.71020  eV     2   -->   2 A              

 **************************************************************************

 **************************************************************************

                    xk=(   0.34330,   0.55998,   0.25043  )

     Band symmetry, C_1 (1)     point group:

     e(  1 -  1) =    -44.21183  eV     1   --> A              
     e(  2 -  2) =    -44.21149  eV     1   --> A              
     e(  3 -  3) =    -20.54635  eV     1   --> A              
     e(  4 -  4) =    -20.54604  eV     1   --> A              
     e(  5 -  5) =    -20.53462  eV     1   --> A              
     e(  6 -  6) =    -20.53431  eV     1   --> A              
     e(  7 -  7) =    -20.52880  eV     1   --> A              
     e(  8 -  8) =    -20.52849  eV     1   --> A              
     e(  9 - 10) =     -0.48146  eV     2   -->   2 A              
     e( 11 - 12) =      6.97558  eV     2   -->   2 A              
     e( 13 - 14) =      7.44677  eV     2   -->   2 A              
     e( 15 - 16) =      8.04517  eV     2   -->   2 A              
     e( 17 - 18) =     12.72311  eV     2   -->   2 A              
     e( 19 - 19) =     14.58624  eV     1   --> A              
     e( 20 - 20) =     14.58646  eV     1   --> A              
     e( 21 - 22) =     14.70947  eV     2   -->   2 A              
     e( 23 - 24) =     14.88981  eV     2   -->   2 A              
     e( 25 - 26) =     17.09745  eV     2   -->   2 A              
     e( 27 - 28) =     18.88797  eV     2   -->   2 A              
     e( 29 - 30) =     19.38053  eV     2   -->   2 A              
     e( 31 - 32) =     22.33060  eV     2   -->   2 A              
     e( 33 - 34) =     23.35788  eV     2   -->   2 A              
     e( 35 - 36) =     25.39213  eV     2   -->   2 A              
     e( 37 - 38) =     26.61304  eV     2   -->   2 A              
     e( 39 - 40) =     30.70199  eV     2   -->   2 A              

 **************************************************************************

 **************************************************************************

                    xk=(   0.33997,   0.56575,   0.25043  )

     Band symmetry, C_1 (1)     point group:

     e(  1 -  1) =    -44.21182  eV     1   --> A              
     e(  2 -  2) =    -44.21148  eV     1   --> A              
     e(  3 -  3) =    -20.54468  eV     1   --> A              
     e(  4 -  4) =    -20.54439  eV     1   --> A              
     e(  5 -  5) =    -20.53644  eV     1   --> A              
     e(  6 -  6) =    -20.53614  eV     1   --> A              
     e(  7 -  7) =    -20.52878  eV     1   --> A              
     e(  8 -  8) =    -20.52847  eV     1   --> A              
     e(  9 - 10) =     -0.48021  eV     2   -->   2 A              
     e( 11 - 12) =      6.98994  eV     2   -->   2 A              
     e( 13 - 14) =      7.42766  eV     2   -->   2 A              
     e( 15 - 16) =      8.04464  eV     2   -->   2 A              
     e( 17 - 18) =     12.72590  eV     2   -->   2 A              
     e( 19 - 19) =     14.59232  eV     1   --> A              
     e( 20 - 20) =     14.59254  eV     1   --> A              
     e( 21 - 22) =     14.71162  eV     2   -->   2 A              
     e( 23 - 24) =     14.87959  eV     2   -->   2 A              
     e( 25 - 26) =     17.10221  eV     2   -->   2 A              
     e( 27 - 28) =     18.91137  eV     2   -->   2 A              
     e( 29 - 30) =     19.35152  eV     2   -->   2 A              
     e( 31 - 32) =     22.34516  eV     2   -->   2 A              
     e( 33 - 34) =     23.34966  eV     2   -->   2 A              
     e( 35 - 36) =     25.40247  eV     2   -->   2 A              
     e( 37 - 38) =     26.59143  eV     2   -->   2 A              
     e( 39 - 40) =     30.69603  eV     2   -->   2 A              

 **************************************************************************

 **************************************************************************

                    xk=(   0.33663,   0.57152,   0.25043  )

     Band symmetry, C_1 (1)     point group:

     e(  1 -  1) =    -44.21181  eV     1   --> A              
     e(  2 -  2) =    -44.21147  eV     1   --> A              
     e(  3 -  3) =    -20.54316  eV     1   --> A              
     e(  4 -  4) =    -20.54293  eV     1   --> A              
     e(  5 -  5) =    -20.53799  eV     1   --> A              
     e(  6 -  6) =    -20.53776  eV     1   --> A              
     e(  7 -  7) =    -20.52877  eV     1   --> A              
     e(  8 -  8) =    -20.52845  eV     1   --> A              
     e(  9 - 10) =     -0.47945  eV     2   -->   2 A              
     e( 11 - 12) =      6.99901  eV     2   -->   2 A              
     e( 13 - 14) =      7.41574  eV     2   -->   2 A              
     e( 15 - 16) =      8.04431  eV     2   -->   2 A              
     e( 17 - 18) =     12.72755  eV     2   -->   2 A              
     e( 19 - 19) =     14.59681  eV     1   --> A              
     e( 20 - 20) =     14.59704  eV     1   --> A              
     e( 21 - 22) =     14.71249  eV     2   -->   2 A              
     e( 23 - 24) =     14.87311  eV     2   -->   2 A              
     e( 25 - 26) =     17.10515  eV     2   -->   2 A              
     e( 27 - 28) =     18.92611  eV     2   -->   2 A              
     e( 29 - 30) =     19.33330  eV     2   -->   2 A              
     e( 31 - 32) =     22.35365  eV     2   -->   2 A              
     e( 33 - 34) =     23.34502  eV     2   -->   2 A              
     e( 35 - 36) =     25.40934  eV     2   -->   2 A              
     e( 37 - 38) =     26.57777  eV     2   -->   2 A              
     e( 39 - 40) =     30.69239  eV     2   -->   2 A              

 **************************************************************************

 **************************************************************************

                    xk=(   0.33330,   0.57729,   0.25043  )

     Band symmetry, C_1 (1)     point group:

     e(  1 -  1) =    -44.21181  eV     1   --> A              
     e(  2 -  2) =    -44.21147  eV     1   --> A              
     e(  3 -  4) =    -20.54229  eV     2   -->   2 A              
     e(  5 -  6) =    -20.53867  eV     2   -->   2 A              
     e(  7 -  7) =    -20.52876  eV     1   --> A              
     e(  8 -  8) =    -20.52845  eV     1   --> A              
     e(  9 - 10) =     -0.47919  eV     2   -->   2 A              
     e( 11 - 12) =      7.00210  eV     2   -->   2 A              
     e( 13 - 14) =      7.41168  eV     2   -->   2 A              
     e( 15 - 16) =      8.04419  eV     2   -->   2 A              
     e( 17 - 18) =     12.72809  eV     2   -->   2 A              
     e( 19 - 19) =     14.59860  eV     1   --> A              
     e( 20 - 20) =     14.59883  eV     1   --> A              
     e( 21 - 22) =     14.71257  eV     2   -->   2 A              
     e( 23 - 24) =     14.87090  eV     2   -->   2 A              
     e( 25 - 26) =     17.10616  eV     2   -->   2 A              
     e( 27 - 28) =     18.93108  eV     2   -->   2 A              
     e( 29 - 30) =     19.32712  eV     2   -->   2 A              
     e( 31 - 32) =     22.35639  eV     2   -->   2 A              
     e( 33 - 34) =     23.34357  eV     2   -->   2 A              
     e( 35 - 36) =     25.41182  eV     2   -->   2 A              
     e( 37 - 38) =     26.57302  eV     2   -->   2 A              
     e( 39 - 40) =     30.69114  eV     2   -->   2 A              

 **************************************************************************

     BANDS        :   1m41.64s CPU   4m45.19s WALL


   This run was terminated on:   7:27:29   6Oct2023            

=------------------------------------------------------------------------------=
   JOB DONE.
=------------------------------------------------------------------------------=
