
     Program PWSCF v.7.1 starts on  6Oct2023 at  7:21:36 

     This program is part of the open-source Quantum ESPRESSO suite
     for quantum simulation of materials; please cite
         "P. Giannozzi et al., J. Phys.:Condens. Matter 21 395502 (2009);
         "P. Giannozzi et al., J. Phys.:Condens. Matter 29 465901 (2017);
         "P. Giannozzi et al., J. Chem. Phys. 152 154105 (2020);
          URL http://www.quantum-espresso.org", 
     in publications or presentations arising from this work. More details at
     http://www.quantum-espresso.org/quote

     Parallel version (MPI & OpenMP), running on      60 processor cores
     Number of MPI processes:                30
     Threads/MPI process:                     2

     MPI processes distributed on     5 nodes
     13114 MiB available memory on the printing compute node when the environment starts

     Reading input from TiS.nscf-bands.in

     Current dimensions of program PWSCF are:
     Max number of different atomic species (ntypx) = 10
     Max number of k-points (npk) =  40000
     Max angular momentum in pseudopotentials (lmaxx) =  4

     Atomic positions and unit cell read from directory:
     ./out/TiS.save/
     Atomic positions from file used, from input discarded


     K-points division:     npool     =      30
     Subspace diagonalization in iterative solution of the eigenvalue problem:
     a serial algorithm will be used


     G-vector sticks info
     --------------------
     sticks:   dense  smooth     PW     G-vecs:    dense   smooth      PW
     Sum         745     433    127                33091    14259    2445

     Using Slab Decomposition



     bravais-lattice index     =            0
     lattice parameter (alat)  =       6.2293  a.u.
     unit-cell volume          =     417.9542 (a.u.)^3
     number of atoms/cell      =            4
     number of atomic types    =            2
     number of electrons       =        36.00
     number of Kohn-Sham states=           40
     kinetic-energy cutoff     =      40.0000  Ry
     charge density cutoff     =     280.0000  Ry
     Exchange-correlation=  SLA  PW   PBX  PBC
                           (   1   4   3   4   0   0   0)

     celldm(1)=   6.229263  celldm(2)=   0.000000  celldm(3)=   0.000000
     celldm(4)=   0.000000  celldm(5)=   0.000000  celldm(6)=   0.000000

     crystal axes: (cart. coord. in units of alat)
               a(1) = (   1.000000   0.000000   0.000000 )  
               a(2) = (  -0.500000   0.866025   0.000000 )  
               a(3) = (   0.000000   0.000000   1.996586 )  

     reciprocal axes: (cart. coord. in units 2 pi/alat)
               b(1) = (  1.000000  0.577350 -0.000000 )  
               b(2) = (  0.000000  1.154701  0.000000 )  
               b(3) = (  0.000000 -0.000000  0.500855 )  


     PseudoPot. # 1 for S  read from file:
     /home/tcmp/apps/pseudopotential/s_pbe_v1.4.uspp.F.UPF
     MD5 check sum: 88d86576ff6df21479756cfb9bdac1df
     Pseudo is Ultrasoft + core correction, Zval =  6.0
     Generated by new atomic code, or converted to UPF format
     Using radial grid of  907 points,  6 beta functions with: 
                l(1) =   0
                l(2) =   0
                l(3) =   1
                l(4) =   1
                l(5) =   2
                l(6) =   2
     Q(r) pseudized with  8 coefficients,  rinner =    1.300   1.300   1.300
                                                       1.300   1.300

     PseudoPot. # 2 for Ti read from file:
     /home/tcmp/apps/pseudopotential/ti_pbe_v1.4.uspp.F.UPF
     MD5 check sum: 88a00a6731bd790ddea75d31a80cb452
     Pseudo is Ultrasoft + core correction, Zval = 12.0
     Generated by new atomic code, or converted to UPF format
     Using radial grid of  851 points,  6 beta functions with: 
                l(1) =   0
                l(2) =   0
                l(3) =   1
                l(4) =   1
                l(5) =   2
                l(6) =   2
     Q(r) pseudized with  6 coefficients,  rinner =    1.000   1.000   1.000
                                                       1.000   1.000

     atomic species   valence    mass     pseudopotential
        S              6.00    32.06500     S ( 1.00)
        Ti            12.00    47.86700     Ti( 1.00)

     Starting magnetic structure 
     atomic species   magnetization
        S            0.100
        Ti           0.417

     No symmetry found


                                    s                        frac. trans.

      isym =  1     identity                                     

 cryst.   s( 1) = (     1          0          0      )
                  (     0          1          0      )
                  (     0          0          1      )

 cart.    s( 1) = (  1.0000000 -0.0000000  0.0000000 )
                  (  0.0000000  1.0000000  0.0000000 )
                  (  0.0000000  0.0000000  1.0000000 )


   Cartesian axes

     site n.     atom                  positions (alat units)
         1           S   tau(   1) = (   0.5000000   0.2887168   0.4991465  )
         2           S   tau(   2) = (  -0.0000000   0.5773086   1.4974395  )
         3           Ti  tau(   3) = (   0.0000000   0.0000000   0.0000000  )
         4           Ti  tau(   4) = (   0.0000000   0.0000000   0.9982930  )

   Crystallographic axes

     site n.     atom                  positions (cryst. coord.)
         1           S   tau(   1) = (  0.6666907  0.3333814  0.2500000  )
         2           S   tau(   2) = (  0.3333093  0.6666186  0.7500000  )
         3           Ti  tau(   3) = (  0.0000000  0.0000000  0.0000000  )
         4           Ti  tau(   4) = (  0.0000000  0.0000000  0.5000000  )

     number of k points=   351  Marzari-Vanderbilt smearing, width (Ry)=  0.0147
                       cart. coord. in units 2pi/alat
        k(    1) = (   0.5000000   0.2886751   0.0000000), wk =   0.0028490
        k(    2) = (   0.4966660   0.2944475   0.0000000), wk =   0.0028490
        k(    3) = (   0.4933320   0.3002198   0.0000000), wk =   0.0028490
        k(    4) = (   0.4899980   0.3059922   0.0000000), wk =   0.0028490
        k(    5) = (   0.4866640   0.3117645   0.0000000), wk =   0.0028490
        k(    6) = (   0.4833300   0.3175369   0.0000000), wk =   0.0028490
        k(    7) = (   0.4799960   0.3233092   0.0000000), wk =   0.0028490
        k(    8) = (   0.4766620   0.3290816   0.0000000), wk =   0.0028490
        k(    9) = (   0.4733280   0.3348539   0.0000000), wk =   0.0028490
        k(   10) = (   0.4699940   0.3406263   0.0000000), wk =   0.0028490
        k(   11) = (   0.4666600   0.3463986   0.0000000), wk =   0.0028490
        k(   12) = (   0.4633260   0.3521710   0.0000000), wk =   0.0028490
        k(   13) = (   0.4599920   0.3579433   0.0000000), wk =   0.0028490
        k(   14) = (   0.4566580   0.3637157   0.0000000), wk =   0.0028490
        k(   15) = (   0.4533240   0.3694880   0.0000000), wk =   0.0028490
        k(   16) = (   0.4499900   0.3752604   0.0000000), wk =   0.0028490
        k(   17) = (   0.4466560   0.3810327   0.0000000), wk =   0.0028490
        k(   18) = (   0.4433220   0.3868051   0.0000000), wk =   0.0028490
        k(   19) = (   0.4399880   0.3925774   0.0000000), wk =   0.0028490
        k(   20) = (   0.4366540   0.3983497   0.0000000), wk =   0.0028490
        k(   21) = (   0.4333200   0.4041221   0.0000000), wk =   0.0028490
        k(   22) = (   0.4299860   0.4098944   0.0000000), wk =   0.0028490
        k(   23) = (   0.4266520   0.4156668   0.0000000), wk =   0.0028490
        k(   24) = (   0.4233180   0.4214391   0.0000000), wk =   0.0028490
        k(   25) = (   0.4199840   0.4272115   0.0000000), wk =   0.0028490
        k(   26) = (   0.4166500   0.4329838   0.0000000), wk =   0.0028490
        k(   27) = (   0.4133160   0.4387562   0.0000000), wk =   0.0028490
        k(   28) = (   0.4099820   0.4445285   0.0000000), wk =   0.0028490
        k(   29) = (   0.4066480   0.4503009   0.0000000), wk =   0.0028490
        k(   30) = (   0.4033140   0.4560732   0.0000000), wk =   0.0028490
        k(   31) = (   0.3999800   0.4618456   0.0000000), wk =   0.0028490
        k(   32) = (   0.3966460   0.4676179   0.0000000), wk =   0.0028490
        k(   33) = (   0.3933120   0.4733903   0.0000000), wk =   0.0028490
        k(   34) = (   0.3899780   0.4791626   0.0000000), wk =   0.0028490
        k(   35) = (   0.3866440   0.4849350   0.0000000), wk =   0.0028490
        k(   36) = (   0.3833100   0.4907073   0.0000000), wk =   0.0028490
        k(   37) = (   0.3799760   0.4964797   0.0000000), wk =   0.0028490
        k(   38) = (   0.3766420   0.5022520   0.0000000), wk =   0.0028490
        k(   39) = (   0.3733080   0.5080244   0.0000000), wk =   0.0028490
        k(   40) = (   0.3699740   0.5137967   0.0000000), wk =   0.0028490
        k(   41) = (   0.3666400   0.5195691   0.0000000), wk =   0.0028490
        k(   42) = (   0.3633060   0.5253414   0.0000000), wk =   0.0028490
        k(   43) = (   0.3599720   0.5311138   0.0000000), wk =   0.0028490
        k(   44) = (   0.3566380   0.5368861   0.0000000), wk =   0.0028490
        k(   45) = (   0.3533040   0.5426584   0.0000000), wk =   0.0028490
        k(   46) = (   0.3499700   0.5484308   0.0000000), wk =   0.0028490
        k(   47) = (   0.3466360   0.5542031   0.0000000), wk =   0.0028490
        k(   48) = (   0.3433020   0.5599755   0.0000000), wk =   0.0028490
        k(   49) = (   0.3399680   0.5657478   0.0000000), wk =   0.0028490
        k(   50) = (   0.3366340   0.5715202   0.0000000), wk =   0.0028490
        k(   51) = (   0.3333000   0.5772925   0.0000000), wk =   0.0028490
        k(   52) = (   0.3266340   0.5657467   0.0000000), wk =   0.0028490
        k(   53) = (   0.3199680   0.5542008   0.0000000), wk =   0.0028490
        k(   54) = (   0.3133020   0.5426550   0.0000000), wk =   0.0028490
        k(   55) = (   0.3066360   0.5311091   0.0000000), wk =   0.0028490
        k(   56) = (   0.2999700   0.5195633   0.0000000), wk =   0.0028490
        k(   57) = (   0.2933040   0.5080174   0.0000000), wk =   0.0028490
        k(   58) = (   0.2866380   0.4964716   0.0000000), wk =   0.0028490
        k(   59) = (   0.2799720   0.4849257   0.0000000), wk =   0.0028490
        k(   60) = (   0.2733060   0.4733799   0.0000000), wk =   0.0028490
        k(   61) = (   0.2666400   0.4618340   0.0000000), wk =   0.0028490
        k(   62) = (   0.2599740   0.4502882   0.0000000), wk =   0.0028490
        k(   63) = (   0.2533080   0.4387423   0.0000000), wk =   0.0028490
        k(   64) = (   0.2466420   0.4271965   0.0000000), wk =   0.0028490
        k(   65) = (   0.2399760   0.4156506   0.0000000), wk =   0.0028490
        k(   66) = (   0.2333100   0.4041048   0.0000000), wk =   0.0028490
        k(   67) = (   0.2266440   0.3925589   0.0000000), wk =   0.0028490
        k(   68) = (   0.2199780   0.3810131   0.0000000), wk =   0.0028490
        k(   69) = (   0.2133120   0.3694672   0.0000000), wk =   0.0028490
        k(   70) = (   0.2066460   0.3579214   0.0000000), wk =   0.0028490
        k(   71) = (   0.1999800   0.3463755   0.0000000), wk =   0.0028490
        k(   72) = (   0.1933140   0.3348297   0.0000000), wk =   0.0028490
        k(   73) = (   0.1866480   0.3232838   0.0000000), wk =   0.0028490
        k(   74) = (   0.1799820   0.3117380   0.0000000), wk =   0.0028490
        k(   75) = (   0.1733160   0.3001921   0.0000000), wk =   0.0028490
        k(   76) = (   0.1666500   0.2886463   0.0000000), wk =   0.0028490
        k(   77) = (   0.1599840   0.2771004   0.0000000), wk =   0.0028490
        k(   78) = (   0.1533180   0.2655546   0.0000000), wk =   0.0028490
        k(   79) = (   0.1466520   0.2540087   0.0000000), wk =   0.0028490
        k(   80) = (   0.1399860   0.2424629   0.0000000), wk =   0.0028490
        k(   81) = (   0.1333200   0.2309170   0.0000000), wk =   0.0028490
        k(   82) = (   0.1266540   0.2193712   0.0000000), wk =   0.0028490
        k(   83) = (   0.1199880   0.2078253   0.0000000), wk =   0.0028490
        k(   84) = (   0.1133220   0.1962795   0.0000000), wk =   0.0028490
        k(   85) = (   0.1066560   0.1847336   0.0000000), wk =   0.0028490
        k(   86) = (   0.0999900   0.1731878   0.0000000), wk =   0.0028490
        k(   87) = (   0.0933240   0.1616419   0.0000000), wk =   0.0028490
        k(   88) = (   0.0866580   0.1500961   0.0000000), wk =   0.0028490
        k(   89) = (   0.0799920   0.1385502   0.0000000), wk =   0.0028490
        k(   90) = (   0.0733260   0.1270044   0.0000000), wk =   0.0028490
        k(   91) = (   0.0666600   0.1154585   0.0000000), wk =   0.0028490
        k(   92) = (   0.0599940   0.1039127   0.0000000), wk =   0.0028490
        k(   93) = (   0.0533280   0.0923668   0.0000000), wk =   0.0028490
        k(   94) = (   0.0466620   0.0808210   0.0000000), wk =   0.0028490
        k(   95) = (   0.0399960   0.0692751   0.0000000), wk =   0.0028490
        k(   96) = (   0.0333300   0.0577293   0.0000000), wk =   0.0028490
        k(   97) = (   0.0266640   0.0461834   0.0000000), wk =   0.0028490
        k(   98) = (   0.0199980   0.0346376   0.0000000), wk =   0.0028490
        k(   99) = (   0.0133320   0.0230917   0.0000000), wk =   0.0028490
        k(  100) = (   0.0066660   0.0115459   0.0000000), wk =   0.0028490
        k(  101) = (   0.0000000   0.0000000   0.0000000), wk =   0.0028490
        k(  102) = (   0.0100000   0.0057735   0.0000000), wk =   0.0028490
        k(  103) = (   0.0200000   0.0115470   0.0000000), wk =   0.0028490
        k(  104) = (   0.0300000   0.0173205   0.0000000), wk =   0.0028490
        k(  105) = (   0.0400000   0.0230940   0.0000000), wk =   0.0028490
        k(  106) = (   0.0500000   0.0288675   0.0000000), wk =   0.0028490
        k(  107) = (   0.0600000   0.0346410   0.0000000), wk =   0.0028490
        k(  108) = (   0.0700000   0.0404145   0.0000000), wk =   0.0028490
        k(  109) = (   0.0800000   0.0461880   0.0000000), wk =   0.0028490
        k(  110) = (   0.0900000   0.0519615   0.0000000), wk =   0.0028490
        k(  111) = (   0.1000000   0.0577350   0.0000000), wk =   0.0028490
        k(  112) = (   0.1100000   0.0635085   0.0000000), wk =   0.0028490
        k(  113) = (   0.1200000   0.0692820   0.0000000), wk =   0.0028490
        k(  114) = (   0.1300000   0.0750555   0.0000000), wk =   0.0028490
        k(  115) = (   0.1400000   0.0808290   0.0000000), wk =   0.0028490
        k(  116) = (   0.1500000   0.0866025   0.0000000), wk =   0.0028490
        k(  117) = (   0.1600000   0.0923760   0.0000000), wk =   0.0028490
        k(  118) = (   0.1700000   0.0981495   0.0000000), wk =   0.0028490
        k(  119) = (   0.1800000   0.1039230   0.0000000), wk =   0.0028490
        k(  120) = (   0.1900000   0.1096966   0.0000000), wk =   0.0028490
        k(  121) = (   0.2000000   0.1154701   0.0000000), wk =   0.0028490
        k(  122) = (   0.2100000   0.1212436   0.0000000), wk =   0.0028490
        k(  123) = (   0.2200000   0.1270171   0.0000000), wk =   0.0028490
        k(  124) = (   0.2300000   0.1327906   0.0000000), wk =   0.0028490
        k(  125) = (   0.2400000   0.1385641   0.0000000), wk =   0.0028490
        k(  126) = (   0.2500000   0.1443376   0.0000000), wk =   0.0028490
        k(  127) = (   0.2600000   0.1501111   0.0000000), wk =   0.0028490
        k(  128) = (   0.2700000   0.1558846   0.0000000), wk =   0.0028490
        k(  129) = (   0.2800000   0.1616581   0.0000000), wk =   0.0028490
        k(  130) = (   0.2900000   0.1674316   0.0000000), wk =   0.0028490
        k(  131) = (   0.3000000   0.1732051   0.0000000), wk =   0.0028490
        k(  132) = (   0.3100000   0.1789786   0.0000000), wk =   0.0028490
        k(  133) = (   0.3200000   0.1847521   0.0000000), wk =   0.0028490
        k(  134) = (   0.3300000   0.1905256   0.0000000), wk =   0.0028490
        k(  135) = (   0.3400000   0.1962991   0.0000000), wk =   0.0028490
        k(  136) = (   0.3500000   0.2020726   0.0000000), wk =   0.0028490
        k(  137) = (   0.3600000   0.2078461   0.0000000), wk =   0.0028490
        k(  138) = (   0.3700000   0.2136196   0.0000000), wk =   0.0028490
        k(  139) = (   0.3800000   0.2193931   0.0000000), wk =   0.0028490
        k(  140) = (   0.3900000   0.2251666   0.0000000), wk =   0.0028490
        k(  141) = (   0.4000000   0.2309401   0.0000000), wk =   0.0028490
        k(  142) = (   0.4100000   0.2367136   0.0000000), wk =   0.0028490
        k(  143) = (   0.4200000   0.2424871   0.0000000), wk =   0.0028490
        k(  144) = (   0.4300000   0.2482606   0.0000000), wk =   0.0028490
        k(  145) = (   0.4400000   0.2540341   0.0000000), wk =   0.0028490
        k(  146) = (   0.4500000   0.2598076   0.0000000), wk =   0.0028490
        k(  147) = (   0.4600000   0.2655811   0.0000000), wk =   0.0028490
        k(  148) = (   0.4700000   0.2713546   0.0000000), wk =   0.0028490
        k(  149) = (   0.4800000   0.2771281   0.0000000), wk =   0.0028490
        k(  150) = (   0.4900000   0.2829016   0.0000000), wk =   0.0028490
        k(  151) = (   0.5000000   0.2886751   0.0000000), wk =   0.0028490
        k(  152) = (   0.4900000   0.2829016   0.0000000), wk =   0.0028490
        k(  153) = (   0.4800000   0.2771281   0.0000000), wk =   0.0028490
        k(  154) = (   0.4700000   0.2713546   0.0000000), wk =   0.0028490
        k(  155) = (   0.4600000   0.2655811   0.0000000), wk =   0.0028490
        k(  156) = (   0.4500000   0.2598076   0.0000000), wk =   0.0028490
        k(  157) = (   0.4400000   0.2540341   0.0000000), wk =   0.0028490
        k(  158) = (   0.4300000   0.2482606   0.0000000), wk =   0.0028490
        k(  159) = (   0.4200000   0.2424871   0.0000000), wk =   0.0028490
        k(  160) = (   0.4100000   0.2367136   0.0000000), wk =   0.0028490
        k(  161) = (   0.4000000   0.2309401   0.0000000), wk =   0.0028490
        k(  162) = (   0.3900000   0.2251666   0.0000000), wk =   0.0028490
        k(  163) = (   0.3800000   0.2193931   0.0000000), wk =   0.0028490
        k(  164) = (   0.3700000   0.2136196   0.0000000), wk =   0.0028490
        k(  165) = (   0.3600000   0.2078461   0.0000000), wk =   0.0028490
        k(  166) = (   0.3500000   0.2020726   0.0000000), wk =   0.0028490
        k(  167) = (   0.3400000   0.1962991   0.0000000), wk =   0.0028490
        k(  168) = (   0.3300000   0.1905256   0.0000000), wk =   0.0028490
        k(  169) = (   0.3200000   0.1847521   0.0000000), wk =   0.0028490
        k(  170) = (   0.3100000   0.1789786   0.0000000), wk =   0.0028490
        k(  171) = (   0.3000000   0.1732051   0.0000000), wk =   0.0028490
        k(  172) = (   0.2900000   0.1674316   0.0000000), wk =   0.0028490
        k(  173) = (   0.2800000   0.1616581   0.0000000), wk =   0.0028490
        k(  174) = (   0.2700000   0.1558846   0.0000000), wk =   0.0028490
        k(  175) = (   0.2600000   0.1501111   0.0000000), wk =   0.0028490
        k(  176) = (   0.2500000   0.1443376   0.0000000), wk =   0.0028490
        k(  177) = (   0.2400000   0.1385641   0.0000000), wk =   0.0028490
        k(  178) = (   0.2300000   0.1327906   0.0000000), wk =   0.0028490
        k(  179) = (   0.2200000   0.1270171   0.0000000), wk =   0.0028490
        k(  180) = (   0.2100000   0.1212436   0.0000000), wk =   0.0028490
        k(  181) = (   0.2000000   0.1154701   0.0000000), wk =   0.0028490
        k(  182) = (   0.1900000   0.1096966   0.0000000), wk =   0.0028490
        k(  183) = (   0.1800000   0.1039230   0.0000000), wk =   0.0028490
        k(  184) = (   0.1700000   0.0981495   0.0000000), wk =   0.0028490
        k(  185) = (   0.1600000   0.0923760   0.0000000), wk =   0.0028490
        k(  186) = (   0.1500000   0.0866025   0.0000000), wk =   0.0028490
        k(  187) = (   0.1400000   0.0808290   0.0000000), wk =   0.0028490
        k(  188) = (   0.1300000   0.0750555   0.0000000), wk =   0.0028490
        k(  189) = (   0.1200000   0.0692820   0.0000000), wk =   0.0028490
        k(  190) = (   0.1100000   0.0635085   0.0000000), wk =   0.0028490
        k(  191) = (   0.1000000   0.0577350   0.0000000), wk =   0.0028490
        k(  192) = (   0.0900000   0.0519615   0.0000000), wk =   0.0028490
        k(  193) = (   0.0800000   0.0461880   0.0000000), wk =   0.0028490
        k(  194) = (   0.0700000   0.0404145   0.0000000), wk =   0.0028490
        k(  195) = (   0.0600000   0.0346410   0.0000000), wk =   0.0028490
        k(  196) = (   0.0500000   0.0288675   0.0000000), wk =   0.0028490
        k(  197) = (   0.0400000   0.0230940   0.0000000), wk =   0.0028490
        k(  198) = (   0.0300000   0.0173205   0.0000000), wk =   0.0028490
        k(  199) = (   0.0200000   0.0115470   0.0000000), wk =   0.0028490
        k(  200) = (   0.0100000   0.0057735   0.0000000), wk =   0.0028490
        k(  201) = (   0.0000000   0.0000000   0.0000000), wk =   0.0028490
        k(  202) = (   0.0000000   0.0000000   0.0050085), wk =   0.0028490
        k(  203) = (   0.0000000   0.0000000   0.0100171), wk =   0.0028490
        k(  204) = (   0.0000000   0.0000000   0.0150256), wk =   0.0028490
        k(  205) = (   0.0000000   0.0000000   0.0200342), wk =   0.0028490
        k(  206) = (   0.0000000   0.0000000   0.0250427), wk =   0.0028490
        k(  207) = (   0.0000000   0.0000000   0.0300513), wk =   0.0028490
        k(  208) = (   0.0000000   0.0000000   0.0350598), wk =   0.0028490
        k(  209) = (   0.0000000   0.0000000   0.0400684), wk =   0.0028490
        k(  210) = (   0.0000000   0.0000000   0.0450769), wk =   0.0028490
        k(  211) = (   0.0000000   0.0000000   0.0500855), wk =   0.0028490
        k(  212) = (   0.0000000   0.0000000   0.0550940), wk =   0.0028490
        k(  213) = (   0.0000000   0.0000000   0.0601026), wk =   0.0028490
        k(  214) = (   0.0000000   0.0000000   0.0651111), wk =   0.0028490
        k(  215) = (   0.0000000   0.0000000   0.0701197), wk =   0.0028490
        k(  216) = (   0.0000000   0.0000000   0.0751282), wk =   0.0028490
        k(  217) = (   0.0000000   0.0000000   0.0801368), wk =   0.0028490
        k(  218) = (   0.0000000   0.0000000   0.0851453), wk =   0.0028490
        k(  219) = (   0.0000000   0.0000000   0.0901539), wk =   0.0028490
        k(  220) = (   0.0000000   0.0000000   0.0951624), wk =   0.0028490
        k(  221) = (   0.0000000   0.0000000   0.1001710), wk =   0.0028490
        k(  222) = (   0.0000000   0.0000000   0.1051795), wk =   0.0028490
        k(  223) = (   0.0000000   0.0000000   0.1101881), wk =   0.0028490
        k(  224) = (   0.0000000   0.0000000   0.1151966), wk =   0.0028490
        k(  225) = (   0.0000000   0.0000000   0.1202052), wk =   0.0028490
        k(  226) = (   0.0000000   0.0000000   0.1252137), wk =   0.0028490
        k(  227) = (   0.0000000   0.0000000   0.1302223), wk =   0.0028490
        k(  228) = (   0.0000000   0.0000000   0.1352308), wk =   0.0028490
        k(  229) = (   0.0000000   0.0000000   0.1402394), wk =   0.0028490
        k(  230) = (   0.0000000   0.0000000   0.1452479), wk =   0.0028490
        k(  231) = (   0.0000000   0.0000000   0.1502565), wk =   0.0028490
        k(  232) = (   0.0000000   0.0000000   0.1552650), wk =   0.0028490
        k(  233) = (   0.0000000   0.0000000   0.1602736), wk =   0.0028490
        k(  234) = (   0.0000000   0.0000000   0.1652821), wk =   0.0028490
        k(  235) = (   0.0000000   0.0000000   0.1702907), wk =   0.0028490
        k(  236) = (   0.0000000   0.0000000   0.1752992), wk =   0.0028490
        k(  237) = (   0.0000000   0.0000000   0.1803078), wk =   0.0028490
        k(  238) = (   0.0000000   0.0000000   0.1853163), wk =   0.0028490
        k(  239) = (   0.0000000   0.0000000   0.1903249), wk =   0.0028490
        k(  240) = (   0.0000000   0.0000000   0.1953334), wk =   0.0028490
        k(  241) = (   0.0000000   0.0000000   0.2003420), wk =   0.0028490
        k(  242) = (   0.0000000   0.0000000   0.2053505), wk =   0.0028490
        k(  243) = (   0.0000000   0.0000000   0.2103591), wk =   0.0028490
        k(  244) = (   0.0000000   0.0000000   0.2153676), wk =   0.0028490
        k(  245) = (   0.0000000   0.0000000   0.2203762), wk =   0.0028490
        k(  246) = (   0.0000000   0.0000000   0.2253847), wk =   0.0028490
        k(  247) = (   0.0000000   0.0000000   0.2303933), wk =   0.0028490
        k(  248) = (   0.0000000   0.0000000   0.2354018), wk =   0.0028490
        k(  249) = (   0.0000000   0.0000000   0.2404104), wk =   0.0028490
        k(  250) = (   0.0000000   0.0000000   0.2454189), wk =   0.0028490
        k(  251) = (   0.0000000   0.0000000   0.2504275), wk =   0.0028490
        k(  252) = (   0.0100000   0.0057735   0.2504275), wk =   0.0028490
        k(  253) = (   0.0200000   0.0115470   0.2504275), wk =   0.0028490
        k(  254) = (   0.0300000   0.0173205   0.2504275), wk =   0.0028490
        k(  255) = (   0.0400000   0.0230940   0.2504275), wk =   0.0028490
        k(  256) = (   0.0500000   0.0288675   0.2504275), wk =   0.0028490
        k(  257) = (   0.0600000   0.0346410   0.2504275), wk =   0.0028490
        k(  258) = (   0.0700000   0.0404145   0.2504275), wk =   0.0028490
        k(  259) = (   0.0800000   0.0461880   0.2504275), wk =   0.0028490
        k(  260) = (   0.0900000   0.0519615   0.2504275), wk =   0.0028490
        k(  261) = (   0.1000000   0.0577350   0.2504275), wk =   0.0028490
        k(  262) = (   0.1100000   0.0635085   0.2504275), wk =   0.0028490
        k(  263) = (   0.1200000   0.0692820   0.2504275), wk =   0.0028490
        k(  264) = (   0.1300000   0.0750555   0.2504275), wk =   0.0028490
        k(  265) = (   0.1400000   0.0808290   0.2504275), wk =   0.0028490
        k(  266) = (   0.1500000   0.0866025   0.2504275), wk =   0.0028490
        k(  267) = (   0.1600000   0.0923760   0.2504275), wk =   0.0028490
        k(  268) = (   0.1700000   0.0981495   0.2504275), wk =   0.0028490
        k(  269) = (   0.1800000   0.1039230   0.2504275), wk =   0.0028490
        k(  270) = (   0.1900000   0.1096966   0.2504275), wk =   0.0028490
        k(  271) = (   0.2000000   0.1154701   0.2504275), wk =   0.0028490
        k(  272) = (   0.2100000   0.1212436   0.2504275), wk =   0.0028490
        k(  273) = (   0.2200000   0.1270171   0.2504275), wk =   0.0028490
        k(  274) = (   0.2300000   0.1327906   0.2504275), wk =   0.0028490
        k(  275) = (   0.2400000   0.1385641   0.2504275), wk =   0.0028490
        k(  276) = (   0.2500000   0.1443376   0.2504275), wk =   0.0028490
        k(  277) = (   0.2600000   0.1501111   0.2504275), wk =   0.0028490
        k(  278) = (   0.2700000   0.1558846   0.2504275), wk =   0.0028490
        k(  279) = (   0.2800000   0.1616581   0.2504275), wk =   0.0028490
        k(  280) = (   0.2900000   0.1674316   0.2504275), wk =   0.0028490
        k(  281) = (   0.3000000   0.1732051   0.2504275), wk =   0.0028490
        k(  282) = (   0.3100000   0.1789786   0.2504275), wk =   0.0028490
        k(  283) = (   0.3200000   0.1847521   0.2504275), wk =   0.0028490
        k(  284) = (   0.3300000   0.1905256   0.2504275), wk =   0.0028490
        k(  285) = (   0.3400000   0.1962991   0.2504275), wk =   0.0028490
        k(  286) = (   0.3500000   0.2020726   0.2504275), wk =   0.0028490
        k(  287) = (   0.3600000   0.2078461   0.2504275), wk =   0.0028490
        k(  288) = (   0.3700000   0.2136196   0.2504275), wk =   0.0028490
        k(  289) = (   0.3800000   0.2193931   0.2504275), wk =   0.0028490
        k(  290) = (   0.3900000   0.2251666   0.2504275), wk =   0.0028490
        k(  291) = (   0.4000000   0.2309401   0.2504275), wk =   0.0028490
        k(  292) = (   0.4100000   0.2367136   0.2504275), wk =   0.0028490
        k(  293) = (   0.4200000   0.2424871   0.2504275), wk =   0.0028490
        k(  294) = (   0.4300000   0.2482606   0.2504275), wk =   0.0028490
        k(  295) = (   0.4400000   0.2540341   0.2504275), wk =   0.0028490
        k(  296) = (   0.4500000   0.2598076   0.2504275), wk =   0.0028490
        k(  297) = (   0.4600000   0.2655811   0.2504275), wk =   0.0028490
        k(  298) = (   0.4700000   0.2713546   0.2504275), wk =   0.0028490
        k(  299) = (   0.4800000   0.2771281   0.2504275), wk =   0.0028490
        k(  300) = (   0.4900000   0.2829016   0.2504275), wk =   0.0028490
        k(  301) = (   0.5000000   0.2886751   0.2504275), wk =   0.0028490
        k(  302) = (   0.4966660   0.2944475   0.2504275), wk =   0.0028490
        k(  303) = (   0.4933320   0.3002198   0.2504275), wk =   0.0028490
        k(  304) = (   0.4899980   0.3059922   0.2504275), wk =   0.0028490
        k(  305) = (   0.4866640   0.3117645   0.2504275), wk =   0.0028490
        k(  306) = (   0.4833300   0.3175369   0.2504275), wk =   0.0028490
        k(  307) = (   0.4799960   0.3233092   0.2504275), wk =   0.0028490
        k(  308) = (   0.4766620   0.3290816   0.2504275), wk =   0.0028490
        k(  309) = (   0.4733280   0.3348539   0.2504275), wk =   0.0028490
        k(  310) = (   0.4699940   0.3406263   0.2504275), wk =   0.0028490
        k(  311) = (   0.4666600   0.3463986   0.2504275), wk =   0.0028490
        k(  312) = (   0.4633260   0.3521710   0.2504275), wk =   0.0028490
        k(  313) = (   0.4599920   0.3579433   0.2504275), wk =   0.0028490
        k(  314) = (   0.4566580   0.3637157   0.2504275), wk =   0.0028490
        k(  315) = (   0.4533240   0.3694880   0.2504275), wk =   0.0028490
        k(  316) = (   0.4499900   0.3752604   0.2504275), wk =   0.0028490
        k(  317) = (   0.4466560   0.3810327   0.2504275), wk =   0.0028490
        k(  318) = (   0.4433220   0.3868051   0.2504275), wk =   0.0028490
        k(  319) = (   0.4399880   0.3925774   0.2504275), wk =   0.0028490
        k(  320) = (   0.4366540   0.3983497   0.2504275), wk =   0.0028490
        k(  321) = (   0.4333200   0.4041221   0.2504275), wk =   0.0028490
        k(  322) = (   0.4299860   0.4098944   0.2504275), wk =   0.0028490
        k(  323) = (   0.4266520   0.4156668   0.2504275), wk =   0.0028490
        k(  324) = (   0.4233180   0.4214391   0.2504275), wk =   0.0028490
        k(  325) = (   0.4199840   0.4272115   0.2504275), wk =   0.0028490
        k(  326) = (   0.4166500   0.4329838   0.2504275), wk =   0.0028490
        k(  327) = (   0.4133160   0.4387562   0.2504275), wk =   0.0028490
        k(  328) = (   0.4099820   0.4445285   0.2504275), wk =   0.0028490
        k(  329) = (   0.4066480   0.4503009   0.2504275), wk =   0.0028490
        k(  330) = (   0.4033140   0.4560732   0.2504275), wk =   0.0028490
        k(  331) = (   0.3999800   0.4618456   0.2504275), wk =   0.0028490
        k(  332) = (   0.3966460   0.4676179   0.2504275), wk =   0.0028490
        k(  333) = (   0.3933120   0.4733903   0.2504275), wk =   0.0028490
        k(  334) = (   0.3899780   0.4791626   0.2504275), wk =   0.0028490
        k(  335) = (   0.3866440   0.4849350   0.2504275), wk =   0.0028490
        k(  336) = (   0.3833100   0.4907073   0.2504275), wk =   0.0028490
        k(  337) = (   0.3799760   0.4964797   0.2504275), wk =   0.0028490
        k(  338) = (   0.3766420   0.5022520   0.2504275), wk =   0.0028490
        k(  339) = (   0.3733080   0.5080244   0.2504275), wk =   0.0028490
        k(  340) = (   0.3699740   0.5137967   0.2504275), wk =   0.0028490
        k(  341) = (   0.3666400   0.5195691   0.2504275), wk =   0.0028490
        k(  342) = (   0.3633060   0.5253414   0.2504275), wk =   0.0028490
        k(  343) = (   0.3599720   0.5311138   0.2504275), wk =   0.0028490
        k(  344) = (   0.3566380   0.5368861   0.2504275), wk =   0.0028490
        k(  345) = (   0.3533040   0.5426584   0.2504275), wk =   0.0028490
        k(  346) = (   0.3499700   0.5484308   0.2504275), wk =   0.0028490
        k(  347) = (   0.3466360   0.5542031   0.2504275), wk =   0.0028490
        k(  348) = (   0.3433020   0.5599755   0.2504275), wk =   0.0028490
        k(  349) = (   0.3399680   0.5657478   0.2504275), wk =   0.0028490
        k(  350) = (   0.3366340   0.5715202   0.2504275), wk =   0.0028490
        k(  351) = (   0.3333000   0.5772925   0.2504275), wk =   0.0028490

                       cryst. coord.
        k(    1) = (   0.5000000  -0.0000000   0.0000000), wk =   0.0028490
        k(    2) = (   0.4966660   0.0066660   0.0000000), wk =   0.0028490
        k(    3) = (   0.4933320   0.0133320   0.0000000), wk =   0.0028490
        k(    4) = (   0.4899980   0.0199980   0.0000000), wk =   0.0028490
        k(    5) = (   0.4866640   0.0266640   0.0000000), wk =   0.0028490
        k(    6) = (   0.4833300   0.0333300   0.0000000), wk =   0.0028490
        k(    7) = (   0.4799960   0.0399960   0.0000000), wk =   0.0028490
        k(    8) = (   0.4766620   0.0466620   0.0000000), wk =   0.0028490
        k(    9) = (   0.4733280   0.0533280   0.0000000), wk =   0.0028490
        k(   10) = (   0.4699940   0.0599940   0.0000000), wk =   0.0028490
        k(   11) = (   0.4666600   0.0666600   0.0000000), wk =   0.0028490
        k(   12) = (   0.4633260   0.0733260   0.0000000), wk =   0.0028490
        k(   13) = (   0.4599920   0.0799920   0.0000000), wk =   0.0028490
        k(   14) = (   0.4566580   0.0866580   0.0000000), wk =   0.0028490
        k(   15) = (   0.4533240   0.0933240   0.0000000), wk =   0.0028490
        k(   16) = (   0.4499900   0.0999900   0.0000000), wk =   0.0028490
        k(   17) = (   0.4466560   0.1066560   0.0000000), wk =   0.0028490
        k(   18) = (   0.4433220   0.1133220   0.0000000), wk =   0.0028490
        k(   19) = (   0.4399880   0.1199880   0.0000000), wk =   0.0028490
        k(   20) = (   0.4366540   0.1266540   0.0000000), wk =   0.0028490
        k(   21) = (   0.4333200   0.1333200   0.0000000), wk =   0.0028490
        k(   22) = (   0.4299860   0.1399860   0.0000000), wk =   0.0028490
        k(   23) = (   0.4266520   0.1466520   0.0000000), wk =   0.0028490
        k(   24) = (   0.4233180   0.1533180   0.0000000), wk =   0.0028490
        k(   25) = (   0.4199840   0.1599840   0.0000000), wk =   0.0028490
        k(   26) = (   0.4166500   0.1666500   0.0000000), wk =   0.0028490
        k(   27) = (   0.4133160   0.1733160   0.0000000), wk =   0.0028490
        k(   28) = (   0.4099820   0.1799820   0.0000000), wk =   0.0028490
        k(   29) = (   0.4066480   0.1866480   0.0000000), wk =   0.0028490
        k(   30) = (   0.4033140   0.1933140   0.0000000), wk =   0.0028490
        k(   31) = (   0.3999800   0.1999800   0.0000000), wk =   0.0028490
        k(   32) = (   0.3966460   0.2066460   0.0000000), wk =   0.0028490
        k(   33) = (   0.3933120   0.2133120   0.0000000), wk =   0.0028490
        k(   34) = (   0.3899780   0.2199780   0.0000000), wk =   0.0028490
        k(   35) = (   0.3866440   0.2266440   0.0000000), wk =   0.0028490
        k(   36) = (   0.3833100   0.2333100   0.0000000), wk =   0.0028490
        k(   37) = (   0.3799760   0.2399760   0.0000000), wk =   0.0028490
        k(   38) = (   0.3766420   0.2466420   0.0000000), wk =   0.0028490
        k(   39) = (   0.3733080   0.2533080   0.0000000), wk =   0.0028490
        k(   40) = (   0.3699740   0.2599740   0.0000000), wk =   0.0028490
        k(   41) = (   0.3666400   0.2666400   0.0000000), wk =   0.0028490
        k(   42) = (   0.3633060   0.2733060   0.0000000), wk =   0.0028490
        k(   43) = (   0.3599720   0.2799720   0.0000000), wk =   0.0028490
        k(   44) = (   0.3566380   0.2866380   0.0000000), wk =   0.0028490
        k(   45) = (   0.3533040   0.2933040   0.0000000), wk =   0.0028490
        k(   46) = (   0.3499700   0.2999700   0.0000000), wk =   0.0028490
        k(   47) = (   0.3466360   0.3066360   0.0000000), wk =   0.0028490
        k(   48) = (   0.3433020   0.3133020   0.0000000), wk =   0.0028490
        k(   49) = (   0.3399680   0.3199680   0.0000000), wk =   0.0028490
        k(   50) = (   0.3366340   0.3266340   0.0000000), wk =   0.0028490
        k(   51) = (   0.3333000   0.3333000   0.0000000), wk =   0.0028490
        k(   52) = (   0.3266340   0.3266340   0.0000000), wk =   0.0028490
        k(   53) = (   0.3199680   0.3199680   0.0000000), wk =   0.0028490
        k(   54) = (   0.3133020   0.3133020   0.0000000), wk =   0.0028490
        k(   55) = (   0.3066360   0.3066360   0.0000000), wk =   0.0028490
        k(   56) = (   0.2999700   0.2999700   0.0000000), wk =   0.0028490
        k(   57) = (   0.2933040   0.2933040   0.0000000), wk =   0.0028490
        k(   58) = (   0.2866380   0.2866380   0.0000000), wk =   0.0028490
        k(   59) = (   0.2799720   0.2799720   0.0000000), wk =   0.0028490
        k(   60) = (   0.2733060   0.2733060   0.0000000), wk =   0.0028490
        k(   61) = (   0.2666400   0.2666400   0.0000000), wk =   0.0028490
        k(   62) = (   0.2599740   0.2599740   0.0000000), wk =   0.0028490
        k(   63) = (   0.2533080   0.2533080   0.0000000), wk =   0.0028490
        k(   64) = (   0.2466420   0.2466420   0.0000000), wk =   0.0028490
        k(   65) = (   0.2399760   0.2399760   0.0000000), wk =   0.0028490
        k(   66) = (   0.2333100   0.2333100   0.0000000), wk =   0.0028490
        k(   67) = (   0.2266440   0.2266440   0.0000000), wk =   0.0028490
        k(   68) = (   0.2199780   0.2199780   0.0000000), wk =   0.0028490
        k(   69) = (   0.2133120   0.2133120   0.0000000), wk =   0.0028490
        k(   70) = (   0.2066460   0.2066460   0.0000000), wk =   0.0028490
        k(   71) = (   0.1999800   0.1999800   0.0000000), wk =   0.0028490
        k(   72) = (   0.1933140   0.1933140   0.0000000), wk =   0.0028490
        k(   73) = (   0.1866480   0.1866480   0.0000000), wk =   0.0028490
        k(   74) = (   0.1799820   0.1799820   0.0000000), wk =   0.0028490
        k(   75) = (   0.1733160   0.1733160   0.0000000), wk =   0.0028490
        k(   76) = (   0.1666500   0.1666500   0.0000000), wk =   0.0028490
        k(   77) = (   0.1599840   0.1599840   0.0000000), wk =   0.0028490
        k(   78) = (   0.1533180   0.1533180   0.0000000), wk =   0.0028490
        k(   79) = (   0.1466520   0.1466520   0.0000000), wk =   0.0028490
        k(   80) = (   0.1399860   0.1399860   0.0000000), wk =   0.0028490
        k(   81) = (   0.1333200   0.1333200   0.0000000), wk =   0.0028490
        k(   82) = (   0.1266540   0.1266540   0.0000000), wk =   0.0028490
        k(   83) = (   0.1199880   0.1199880   0.0000000), wk =   0.0028490
        k(   84) = (   0.1133220   0.1133220   0.0000000), wk =   0.0028490
        k(   85) = (   0.1066560   0.1066560   0.0000000), wk =   0.0028490
        k(   86) = (   0.0999900   0.0999900   0.0000000), wk =   0.0028490
        k(   87) = (   0.0933240   0.0933240   0.0000000), wk =   0.0028490
        k(   88) = (   0.0866580   0.0866580   0.0000000), wk =   0.0028490
        k(   89) = (   0.0799920   0.0799920   0.0000000), wk =   0.0028490
        k(   90) = (   0.0733260   0.0733260   0.0000000), wk =   0.0028490
        k(   91) = (   0.0666600   0.0666600   0.0000000), wk =   0.0028490
        k(   92) = (   0.0599940   0.0599940   0.0000000), wk =   0.0028490
        k(   93) = (   0.0533280   0.0533280   0.0000000), wk =   0.0028490
        k(   94) = (   0.0466620   0.0466620   0.0000000), wk =   0.0028490
        k(   95) = (   0.0399960   0.0399960   0.0000000), wk =   0.0028490
        k(   96) = (   0.0333300   0.0333300   0.0000000), wk =   0.0028490
        k(   97) = (   0.0266640   0.0266640   0.0000000), wk =   0.0028490
        k(   98) = (   0.0199980   0.0199980   0.0000000), wk =   0.0028490
        k(   99) = (   0.0133320   0.0133320   0.0000000), wk =   0.0028490
        k(  100) = (   0.0066660   0.0066660   0.0000000), wk =   0.0028490
        k(  101) = (   0.0000000   0.0000000   0.0000000), wk =   0.0028490
        k(  102) = (   0.0100000  -0.0000000   0.0000000), wk =   0.0028490
        k(  103) = (   0.0200000  -0.0000000   0.0000000), wk =   0.0028490
        k(  104) = (   0.0300000  -0.0000000   0.0000000), wk =   0.0028490
        k(  105) = (   0.0400000  -0.0000000   0.0000000), wk =   0.0028490
        k(  106) = (   0.0500000   0.0000000   0.0000000), wk =   0.0028490
        k(  107) = (   0.0600000  -0.0000000   0.0000000), wk =   0.0028490
        k(  108) = (   0.0700000   0.0000000   0.0000000), wk =   0.0028490
        k(  109) = (   0.0800000  -0.0000000   0.0000000), wk =   0.0028490
        k(  110) = (   0.0900000  -0.0000000   0.0000000), wk =   0.0028490
        k(  111) = (   0.1000000   0.0000000   0.0000000), wk =   0.0028490
        k(  112) = (   0.1100000  -0.0000000   0.0000000), wk =   0.0028490
        k(  113) = (   0.1200000  -0.0000000   0.0000000), wk =   0.0028490
        k(  114) = (   0.1300000   0.0000000   0.0000000), wk =   0.0028490
        k(  115) = (   0.1400000   0.0000000   0.0000000), wk =   0.0028490
        k(  116) = (   0.1500000  -0.0000000   0.0000000), wk =   0.0028490
        k(  117) = (   0.1600000  -0.0000000   0.0000000), wk =   0.0028490
        k(  118) = (   0.1700000  -0.0000000   0.0000000), wk =   0.0028490
        k(  119) = (   0.1800000  -0.0000000   0.0000000), wk =   0.0028490
        k(  120) = (   0.1900000  -0.0000000   0.0000000), wk =   0.0028490
        k(  121) = (   0.2000000   0.0000000   0.0000000), wk =   0.0028490
        k(  122) = (   0.2100000  -0.0000000   0.0000000), wk =   0.0028490
        k(  123) = (   0.2200000  -0.0000000   0.0000000), wk =   0.0028490
        k(  124) = (   0.2300000  -0.0000000   0.0000000), wk =   0.0028490
        k(  125) = (   0.2400000  -0.0000000   0.0000000), wk =   0.0028490
        k(  126) = (   0.2500000  -0.0000000   0.0000000), wk =   0.0028490
        k(  127) = (   0.2600000   0.0000000   0.0000000), wk =   0.0028490
        k(  128) = (   0.2700000   0.0000000   0.0000000), wk =   0.0028490
        k(  129) = (   0.2800000   0.0000000   0.0000000), wk =   0.0028490
        k(  130) = (   0.2900000  -0.0000000   0.0000000), wk =   0.0028490
        k(  131) = (   0.3000000  -0.0000000   0.0000000), wk =   0.0028490
        k(  132) = (   0.3100000  -0.0000000   0.0000000), wk =   0.0028490
        k(  133) = (   0.3200000  -0.0000000   0.0000000), wk =   0.0028490
        k(  134) = (   0.3300000  -0.0000000   0.0000000), wk =   0.0028490
        k(  135) = (   0.3400000  -0.0000000   0.0000000), wk =   0.0028490
        k(  136) = (   0.3500000  -0.0000000   0.0000000), wk =   0.0028490
        k(  137) = (   0.3600000  -0.0000000   0.0000000), wk =   0.0028490
        k(  138) = (   0.3700000  -0.0000000   0.0000000), wk =   0.0028490
        k(  139) = (   0.3800000  -0.0000000   0.0000000), wk =   0.0028490
        k(  140) = (   0.3900000  -0.0000000   0.0000000), wk =   0.0028490
        k(  141) = (   0.4000000   0.0000000   0.0000000), wk =   0.0028490
        k(  142) = (   0.4100000  -0.0000000   0.0000000), wk =   0.0028490
        k(  143) = (   0.4200000  -0.0000000   0.0000000), wk =   0.0028490
        k(  144) = (   0.4300000  -0.0000000   0.0000000), wk =   0.0028490
        k(  145) = (   0.4400000  -0.0000000   0.0000000), wk =   0.0028490
        k(  146) = (   0.4500000  -0.0000000   0.0000000), wk =   0.0028490
        k(  147) = (   0.4600000  -0.0000000   0.0000000), wk =   0.0028490
        k(  148) = (   0.4700000  -0.0000000   0.0000000), wk =   0.0028490
        k(  149) = (   0.4800000  -0.0000000   0.0000000), wk =   0.0028490
        k(  150) = (   0.4900000  -0.0000000   0.0000000), wk =   0.0028490
        k(  151) = (   0.5000000  -0.0000000   0.0000000), wk =   0.0028490
        k(  152) = (   0.4900000  -0.0000000   0.0000000), wk =   0.0028490
        k(  153) = (   0.4800000  -0.0000000   0.0000000), wk =   0.0028490
        k(  154) = (   0.4700000  -0.0000000   0.0000000), wk =   0.0028490
        k(  155) = (   0.4600000  -0.0000000   0.0000000), wk =   0.0028490
        k(  156) = (   0.4500000  -0.0000000   0.0000000), wk =   0.0028490
        k(  157) = (   0.4400000  -0.0000000   0.0000000), wk =   0.0028490
        k(  158) = (   0.4300000  -0.0000000   0.0000000), wk =   0.0028490
        k(  159) = (   0.4200000  -0.0000000   0.0000000), wk =   0.0028490
        k(  160) = (   0.4100000  -0.0000000   0.0000000), wk =   0.0028490
        k(  161) = (   0.4000000   0.0000000   0.0000000), wk =   0.0028490
        k(  162) = (   0.3900000  -0.0000000   0.0000000), wk =   0.0028490
        k(  163) = (   0.3800000  -0.0000000   0.0000000), wk =   0.0028490
        k(  164) = (   0.3700000  -0.0000000   0.0000000), wk =   0.0028490
        k(  165) = (   0.3600000  -0.0000000   0.0000000), wk =   0.0028490
        k(  166) = (   0.3500000  -0.0000000   0.0000000), wk =   0.0028490
        k(  167) = (   0.3400000  -0.0000000   0.0000000), wk =   0.0028490
        k(  168) = (   0.3300000  -0.0000000   0.0000000), wk =   0.0028490
        k(  169) = (   0.3200000  -0.0000000   0.0000000), wk =   0.0028490
        k(  170) = (   0.3100000  -0.0000000   0.0000000), wk =   0.0028490
        k(  171) = (   0.3000000  -0.0000000   0.0000000), wk =   0.0028490
        k(  172) = (   0.2900000  -0.0000000   0.0000000), wk =   0.0028490
        k(  173) = (   0.2800000   0.0000000   0.0000000), wk =   0.0028490
        k(  174) = (   0.2700000   0.0000000   0.0000000), wk =   0.0028490
        k(  175) = (   0.2600000   0.0000000   0.0000000), wk =   0.0028490
        k(  176) = (   0.2500000  -0.0000000   0.0000000), wk =   0.0028490
        k(  177) = (   0.2400000  -0.0000000   0.0000000), wk =   0.0028490
        k(  178) = (   0.2300000  -0.0000000   0.0000000), wk =   0.0028490
        k(  179) = (   0.2200000  -0.0000000   0.0000000), wk =   0.0028490
        k(  180) = (   0.2100000  -0.0000000   0.0000000), wk =   0.0028490
        k(  181) = (   0.2000000   0.0000000   0.0000000), wk =   0.0028490
        k(  182) = (   0.1900000  -0.0000000   0.0000000), wk =   0.0028490
        k(  183) = (   0.1800000  -0.0000000   0.0000000), wk =   0.0028490
        k(  184) = (   0.1700000  -0.0000000   0.0000000), wk =   0.0028490
        k(  185) = (   0.1600000  -0.0000000   0.0000000), wk =   0.0028490
        k(  186) = (   0.1500000  -0.0000000   0.0000000), wk =   0.0028490
        k(  187) = (   0.1400000   0.0000000   0.0000000), wk =   0.0028490
        k(  188) = (   0.1300000   0.0000000   0.0000000), wk =   0.0028490
        k(  189) = (   0.1200000  -0.0000000   0.0000000), wk =   0.0028490
        k(  190) = (   0.1100000  -0.0000000   0.0000000), wk =   0.0028490
        k(  191) = (   0.1000000  -0.0000000   0.0000000), wk =   0.0028490
        k(  192) = (   0.0900000  -0.0000000   0.0000000), wk =   0.0028490
        k(  193) = (   0.0800000  -0.0000000   0.0000000), wk =   0.0028490
        k(  194) = (   0.0700000   0.0000000   0.0000000), wk =   0.0028490
        k(  195) = (   0.0600000  -0.0000000   0.0000000), wk =   0.0028490
        k(  196) = (   0.0500000  -0.0000000   0.0000000), wk =   0.0028490
        k(  197) = (   0.0400000  -0.0000000   0.0000000), wk =   0.0028490
        k(  198) = (   0.0300000  -0.0000000   0.0000000), wk =   0.0028490
        k(  199) = (   0.0200000  -0.0000000   0.0000000), wk =   0.0028490
        k(  200) = (   0.0100000  -0.0000000   0.0000000), wk =   0.0028490
        k(  201) = (   0.0000000   0.0000000   0.0000000), wk =   0.0028490
        k(  202) = (   0.0000000   0.0000000   0.0100000), wk =   0.0028490
        k(  203) = (   0.0000000   0.0000000   0.0200000), wk =   0.0028490
        k(  204) = (   0.0000000   0.0000000   0.0300000), wk =   0.0028490
        k(  205) = (   0.0000000   0.0000000   0.0400000), wk =   0.0028490
        k(  206) = (   0.0000000   0.0000000   0.0500000), wk =   0.0028490
        k(  207) = (   0.0000000   0.0000000   0.0600000), wk =   0.0028490
        k(  208) = (   0.0000000   0.0000000   0.0700000), wk =   0.0028490
        k(  209) = (   0.0000000   0.0000000   0.0800000), wk =   0.0028490
        k(  210) = (   0.0000000   0.0000000   0.0900000), wk =   0.0028490
        k(  211) = (   0.0000000   0.0000000   0.1000000), wk =   0.0028490
        k(  212) = (   0.0000000   0.0000000   0.1100000), wk =   0.0028490
        k(  213) = (   0.0000000   0.0000000   0.1200000), wk =   0.0028490
        k(  214) = (   0.0000000   0.0000000   0.1300000), wk =   0.0028490
        k(  215) = (   0.0000000   0.0000000   0.1400000), wk =   0.0028490
        k(  216) = (   0.0000000   0.0000000   0.1500000), wk =   0.0028490
        k(  217) = (   0.0000000   0.0000000   0.1600000), wk =   0.0028490
        k(  218) = (   0.0000000   0.0000000   0.1700000), wk =   0.0028490
        k(  219) = (   0.0000000   0.0000000   0.1800000), wk =   0.0028490
        k(  220) = (   0.0000000   0.0000000   0.1900000), wk =   0.0028490
        k(  221) = (   0.0000000   0.0000000   0.2000000), wk =   0.0028490
        k(  222) = (   0.0000000   0.0000000   0.2100000), wk =   0.0028490
        k(  223) = (   0.0000000   0.0000000   0.2200000), wk =   0.0028490
        k(  224) = (   0.0000000   0.0000000   0.2300000), wk =   0.0028490
        k(  225) = (   0.0000000   0.0000000   0.2400000), wk =   0.0028490
        k(  226) = (   0.0000000   0.0000000   0.2500000), wk =   0.0028490
        k(  227) = (   0.0000000   0.0000000   0.2600000), wk =   0.0028490
        k(  228) = (   0.0000000   0.0000000   0.2700000), wk =   0.0028490
        k(  229) = (   0.0000000   0.0000000   0.2800000), wk =   0.0028490
        k(  230) = (   0.0000000   0.0000000   0.2900000), wk =   0.0028490
        k(  231) = (   0.0000000   0.0000000   0.3000000), wk =   0.0028490
        k(  232) = (   0.0000000   0.0000000   0.3100000), wk =   0.0028490
        k(  233) = (   0.0000000   0.0000000   0.3200000), wk =   0.0028490
        k(  234) = (   0.0000000   0.0000000   0.3300000), wk =   0.0028490
        k(  235) = (   0.0000000   0.0000000   0.3400000), wk =   0.0028490
        k(  236) = (   0.0000000   0.0000000   0.3500000), wk =   0.0028490
        k(  237) = (   0.0000000   0.0000000   0.3600000), wk =   0.0028490
        k(  238) = (   0.0000000   0.0000000   0.3700000), wk =   0.0028490
        k(  239) = (   0.0000000   0.0000000   0.3800000), wk =   0.0028490
        k(  240) = (   0.0000000   0.0000000   0.3900000), wk =   0.0028490
        k(  241) = (   0.0000000   0.0000000   0.4000000), wk =   0.0028490
        k(  242) = (   0.0000000   0.0000000   0.4100000), wk =   0.0028490
        k(  243) = (   0.0000000   0.0000000   0.4200000), wk =   0.0028490
        k(  244) = (   0.0000000   0.0000000   0.4300000), wk =   0.0028490
        k(  245) = (   0.0000000   0.0000000   0.4400000), wk =   0.0028490
        k(  246) = (   0.0000000   0.0000000   0.4500000), wk =   0.0028490
        k(  247) = (   0.0000000   0.0000000   0.4600000), wk =   0.0028490
        k(  248) = (   0.0000000   0.0000000   0.4700000), wk =   0.0028490
        k(  249) = (   0.0000000   0.0000000   0.4800000), wk =   0.0028490
        k(  250) = (   0.0000000   0.0000000   0.4900000), wk =   0.0028490
        k(  251) = (   0.0000000   0.0000000   0.5000000), wk =   0.0028490
        k(  252) = (   0.0100000  -0.0000000   0.5000000), wk =   0.0028490
        k(  253) = (   0.0200000  -0.0000000   0.5000000), wk =   0.0028490
        k(  254) = (   0.0300000  -0.0000000   0.5000000), wk =   0.0028490
        k(  255) = (   0.0400000  -0.0000000   0.5000000), wk =   0.0028490
        k(  256) = (   0.0500000   0.0000000   0.5000000), wk =   0.0028490
        k(  257) = (   0.0600000  -0.0000000   0.5000000), wk =   0.0028490
        k(  258) = (   0.0700000   0.0000000   0.5000000), wk =   0.0028490
        k(  259) = (   0.0800000  -0.0000000   0.5000000), wk =   0.0028490
        k(  260) = (   0.0900000  -0.0000000   0.5000000), wk =   0.0028490
        k(  261) = (   0.1000000   0.0000000   0.5000000), wk =   0.0028490
        k(  262) = (   0.1100000  -0.0000000   0.5000000), wk =   0.0028490
        k(  263) = (   0.1200000  -0.0000000   0.5000000), wk =   0.0028490
        k(  264) = (   0.1300000   0.0000000   0.5000000), wk =   0.0028490
        k(  265) = (   0.1400000   0.0000000   0.5000000), wk =   0.0028490
        k(  266) = (   0.1500000  -0.0000000   0.5000000), wk =   0.0028490
        k(  267) = (   0.1600000  -0.0000000   0.5000000), wk =   0.0028490
        k(  268) = (   0.1700000  -0.0000000   0.5000000), wk =   0.0028490
        k(  269) = (   0.1800000  -0.0000000   0.5000000), wk =   0.0028490
        k(  270) = (   0.1900000  -0.0000000   0.5000000), wk =   0.0028490
        k(  271) = (   0.2000000   0.0000000   0.5000000), wk =   0.0028490
        k(  272) = (   0.2100000  -0.0000000   0.5000000), wk =   0.0028490
        k(  273) = (   0.2200000  -0.0000000   0.5000000), wk =   0.0028490
        k(  274) = (   0.2300000  -0.0000000   0.5000000), wk =   0.0028490
        k(  275) = (   0.2400000  -0.0000000   0.5000000), wk =   0.0028490
        k(  276) = (   0.2500000  -0.0000000   0.5000000), wk =   0.0028490
        k(  277) = (   0.2600000   0.0000000   0.5000000), wk =   0.0028490
        k(  278) = (   0.2700000   0.0000000   0.5000000), wk =   0.0028490
        k(  279) = (   0.2800000   0.0000000   0.5000000), wk =   0.0028490
        k(  280) = (   0.2900000  -0.0000000   0.5000000), wk =   0.0028490
        k(  281) = (   0.3000000  -0.0000000   0.5000000), wk =   0.0028490
        k(  282) = (   0.3100000  -0.0000000   0.5000000), wk =   0.0028490
        k(  283) = (   0.3200000  -0.0000000   0.5000000), wk =   0.0028490
        k(  284) = (   0.3300000  -0.0000000   0.5000000), wk =   0.0028490
        k(  285) = (   0.3400000  -0.0000000   0.5000000), wk =   0.0028490
        k(  286) = (   0.3500000  -0.0000000   0.5000000), wk =   0.0028490
        k(  287) = (   0.3600000  -0.0000000   0.5000000), wk =   0.0028490
        k(  288) = (   0.3700000  -0.0000000   0.5000000), wk =   0.0028490
        k(  289) = (   0.3800000  -0.0000000   0.5000000), wk =   0.0028490
        k(  290) = (   0.3900000  -0.0000000   0.5000000), wk =   0.0028490
        k(  291) = (   0.4000000   0.0000000   0.5000000), wk =   0.0028490
        k(  292) = (   0.4100000  -0.0000000   0.5000000), wk =   0.0028490
        k(  293) = (   0.4200000  -0.0000000   0.5000000), wk =   0.0028490
        k(  294) = (   0.4300000  -0.0000000   0.5000000), wk =   0.0028490
        k(  295) = (   0.4400000  -0.0000000   0.5000000), wk =   0.0028490
        k(  296) = (   0.4500000  -0.0000000   0.5000000), wk =   0.0028490
        k(  297) = (   0.4600000  -0.0000000   0.5000000), wk =   0.0028490
        k(  298) = (   0.4700000  -0.0000000   0.5000000), wk =   0.0028490
        k(  299) = (   0.4800000  -0.0000000   0.5000000), wk =   0.0028490
        k(  300) = (   0.4900000  -0.0000000   0.5000000), wk =   0.0028490
        k(  301) = (   0.5000000  -0.0000000   0.5000000), wk =   0.0028490
        k(  302) = (   0.4966660   0.0066660   0.5000000), wk =   0.0028490
        k(  303) = (   0.4933320   0.0133320   0.5000000), wk =   0.0028490
        k(  304) = (   0.4899980   0.0199980   0.5000000), wk =   0.0028490
        k(  305) = (   0.4866640   0.0266640   0.5000000), wk =   0.0028490
        k(  306) = (   0.4833300   0.0333300   0.5000000), wk =   0.0028490
        k(  307) = (   0.4799960   0.0399960   0.5000000), wk =   0.0028490
        k(  308) = (   0.4766620   0.0466620   0.5000000), wk =   0.0028490
        k(  309) = (   0.4733280   0.0533280   0.5000000), wk =   0.0028490
        k(  310) = (   0.4699940   0.0599940   0.5000000), wk =   0.0028490
        k(  311) = (   0.4666600   0.0666600   0.5000000), wk =   0.0028490
        k(  312) = (   0.4633260   0.0733260   0.5000000), wk =   0.0028490
        k(  313) = (   0.4599920   0.0799920   0.5000000), wk =   0.0028490
        k(  314) = (   0.4566580   0.0866580   0.5000000), wk =   0.0028490
        k(  315) = (   0.4533240   0.0933240   0.5000000), wk =   0.0028490
        k(  316) = (   0.4499900   0.0999900   0.5000000), wk =   0.0028490
        k(  317) = (   0.4466560   0.1066560   0.5000000), wk =   0.0028490
        k(  318) = (   0.4433220   0.1133220   0.5000000), wk =   0.0028490
        k(  319) = (   0.4399880   0.1199880   0.5000000), wk =   0.0028490
        k(  320) = (   0.4366540   0.1266540   0.5000000), wk =   0.0028490
        k(  321) = (   0.4333200   0.1333200   0.5000000), wk =   0.0028490
        k(  322) = (   0.4299860   0.1399860   0.5000000), wk =   0.0028490
        k(  323) = (   0.4266520   0.1466520   0.5000000), wk =   0.0028490
        k(  324) = (   0.4233180   0.1533180   0.5000000), wk =   0.0028490
        k(  325) = (   0.4199840   0.1599840   0.5000000), wk =   0.0028490
        k(  326) = (   0.4166500   0.1666500   0.5000000), wk =   0.0028490
        k(  327) = (   0.4133160   0.1733160   0.5000000), wk =   0.0028490
        k(  328) = (   0.4099820   0.1799820   0.5000000), wk =   0.0028490
        k(  329) = (   0.4066480   0.1866480   0.5000000), wk =   0.0028490
        k(  330) = (   0.4033140   0.1933140   0.5000000), wk =   0.0028490
        k(  331) = (   0.3999800   0.1999800   0.5000000), wk =   0.0028490
        k(  332) = (   0.3966460   0.2066460   0.5000000), wk =   0.0028490
        k(  333) = (   0.3933120   0.2133120   0.5000000), wk =   0.0028490
        k(  334) = (   0.3899780   0.2199780   0.5000000), wk =   0.0028490
        k(  335) = (   0.3866440   0.2266440   0.5000000), wk =   0.0028490
        k(  336) = (   0.3833100   0.2333100   0.5000000), wk =   0.0028490
        k(  337) = (   0.3799760   0.2399760   0.5000000), wk =   0.0028490
        k(  338) = (   0.3766420   0.2466420   0.5000000), wk =   0.0028490
        k(  339) = (   0.3733080   0.2533080   0.5000000), wk =   0.0028490
        k(  340) = (   0.3699740   0.2599740   0.5000000), wk =   0.0028490
        k(  341) = (   0.3666400   0.2666400   0.5000000), wk =   0.0028490
        k(  342) = (   0.3633060   0.2733060   0.5000000), wk =   0.0028490
        k(  343) = (   0.3599720   0.2799720   0.5000000), wk =   0.0028490
        k(  344) = (   0.3566380   0.2866380   0.5000000), wk =   0.0028490
        k(  345) = (   0.3533040   0.2933040   0.5000000), wk =   0.0028490
        k(  346) = (   0.3499700   0.2999700   0.5000000), wk =   0.0028490
        k(  347) = (   0.3466360   0.3066360   0.5000000), wk =   0.0028490
        k(  348) = (   0.3433020   0.3133020   0.5000000), wk =   0.0028490
        k(  349) = (   0.3399680   0.3199680   0.5000000), wk =   0.0028490
        k(  350) = (   0.3366340   0.3266340   0.5000000), wk =   0.0028490
        k(  351) = (   0.3333000   0.3333000   0.5000000), wk =   0.0028490

     Dense  grid:    33091 G-vectors     FFT dimensions: (  36,  36,  72)

     Smooth grid:    14259 G-vectors     FFT dimensions: (  25,  25,  54)

     Dynamical RAM for                 wfc:       1.09 MB

     Dynamical RAM for     wfc (w. buffer):       1.09 MB

     Dynamical RAM for           str. fact:       1.01 MB

     Dynamical RAM for           local pot:       0.00 MB

     Dynamical RAM for          nlocal pot:       1.96 MB

     Dynamical RAM for                qrad:       2.69 MB

     Dynamical RAM for          rho,v,vnew:       7.30 MB

     Dynamical RAM for           G-vectors:       2.00 MB

     Dynamical RAM for          h,s,v(r/c):       0.29 MB

     Dynamical RAM for          <psi|beta>:       0.04 MB

     Dynamical RAM for                 psi:       2.18 MB

     Dynamical RAM for                hpsi:       2.18 MB

     Dynamical RAM for                spsi:       2.18 MB

     Dynamical RAM for      wfcinit/wfcrot:       2.22 MB

     Dynamical RAM for           addusdens:       4.16 MB

     Estimated static dynamical RAM per process >      21.84 MB

     Estimated max dynamical RAM per process >      28.72 MB

     Estimated total dynamical RAM >     861.48 MB

     Check: negative core charge=   -0.000005
     Generating pointlists ...
     new r_m :   0.3148 (alat units)  1.9610 (a.u.) for type    1
     new r_m :   0.3148 (alat units)  1.9610 (a.u.) for type    2

     The potential is recalculated from file :
     ./out/TiS.save/charge-density


     negative rho (up, down):  7.843E-04 7.843E-04
     Starting wfcs are   28 randomized atomic wfcs +   12 random wfcs

     Band Structure Calculation
     Davidson diagonalization with overlap

     Computing kpt #:     1  of    24 on this pool
     total cpu time spent up to now is        6.0 secs

     Computing kpt #:     2  of    24 on this pool
     total cpu time spent up to now is        7.2 secs

     Computing kpt #:     3  of    24 on this pool
     total cpu time spent up to now is        8.3 secs

     Computing kpt #:     4  of    24 on this pool
     total cpu time spent up to now is        9.4 secs

     Computing kpt #:     5  of    24 on this pool
     total cpu time spent up to now is       10.5 secs

     Computing kpt #:     6  of    24 on this pool
     total cpu time spent up to now is       11.6 secs

     Computing kpt #:     7  of    24 on this pool
     total cpu time spent up to now is       12.7 secs

     Computing kpt #:     8  of    24 on this pool
     total cpu time spent up to now is       13.8 secs

     Computing kpt #:     9  of    24 on this pool
     total cpu time spent up to now is       14.9 secs

     Computing kpt #:    10  of    24 on this pool
     total cpu time spent up to now is       16.2 secs

     Computing kpt #:    11  of    24 on this pool
     total cpu time spent up to now is       17.3 secs

     Computing kpt #:    12  of    24 on this pool
     total cpu time spent up to now is       20.3 secs

     Computing kpt #:    13  of    24 on this pool
     total cpu time spent up to now is       21.4 secs

     Computing kpt #:    14  of    24 on this pool
     total cpu time spent up to now is       22.5 secs

     Computing kpt #:    15  of    24 on this pool
     total cpu time spent up to now is       23.7 secs

     Computing kpt #:    16  of    24 on this pool
     total cpu time spent up to now is       24.8 secs

     Computing kpt #:    17  of    24 on this pool
     total cpu time spent up to now is       26.0 secs

     Computing kpt #:    18  of    24 on this pool
     total cpu time spent up to now is       27.2 secs

     Computing kpt #:    19  of    24 on this pool
     total cpu time spent up to now is       28.3 secs

     Computing kpt #:    20  of    24 on this pool
     total cpu time spent up to now is       29.5 secs

     Computing kpt #:    21  of    24 on this pool
     total cpu time spent up to now is       30.6 secs

     Computing kpt #:    22  of    24 on this pool
     total cpu time spent up to now is       31.7 secs

     Computing kpt #:    23  of    24 on this pool
     total cpu time spent up to now is       32.9 secs

     Computing kpt #:    24  of    24 on this pool
     total cpu time spent up to now is       34.0 secs

     ethr =  2.22E-12,  avg # of iterations = 40.4

     total cpu time spent up to now is       34.0 secs

     End of band structure calculation

 ------ SPIN UP ------------


          k = 0.5000 0.2887 0.0000 (  1788 PWs)   bands (ev):

   -44.2189 -44.2090 -20.6098 -20.5946 -20.5807 -20.4687 -20.4667 -20.4521
    -0.8266  -0.4964   5.6620   7.0175   7.5264   8.2893   8.9199  10.1669
    11.2314  12.2289  13.7661  14.9171  15.0477  15.1232  15.1440  15.7602
    16.8369  17.0861  17.0958  18.6194  19.4247  19.5244  20.1430  20.6241
    23.8160  26.8488  26.9070  27.7019  28.4016  28.4486  28.5633  28.7363

          k = 0.4967 0.2944 0.0000 (  1790 PWs)   bands (ev):

   -44.2189 -44.2090 -20.6098 -20.5946 -20.5807 -20.4687 -20.4667 -20.4521
    -0.8263  -0.4964   5.6625   7.0175   7.5268   8.2891   8.9192  10.1605
    11.2371  12.2294  13.7659  14.9160  15.0476  15.1229  15.1440  15.7606
    16.8366  17.0276  17.1567  18.6212  19.4209  19.5260  20.1446  20.6262
    23.8140  26.8350  26.9067  27.7152  28.3622  28.4427  28.5659  28.7754

          k = 0.4933 0.3002 0.0000 (  1794 PWs)   bands (ev):

   -44.2189 -44.2090 -20.6097 -20.5946 -20.5806 -20.4687 -20.4669 -20.4523
    -0.8256  -0.4962   5.6640   7.0176   7.5278   8.2885   8.9174  10.1415
    11.2538  12.2308  13.7653  14.9127  15.0472  15.1220  15.1438  15.7618
    16.8358  16.9668  17.2244  18.6265  19.4096  19.5308  20.1497  20.6323
    23.8080  26.7960  26.9057  27.7527  28.2739  28.4254  28.5739  28.8628

          k = 0.4900 0.3060 0.0000 (  1798 PWs)   bands (ev):

   -44.2188 -44.2090 -20.6096 -20.5945 -20.5805 -20.4687 -20.4671 -20.4525
    -0.8243  -0.4960   5.6666   7.0178   7.5296   8.2874   8.9142  10.1113
    11.2804  12.2333  13.7643  14.9073  15.0465  15.1205  15.1436  15.7638
    16.8345  16.9084  17.2944  18.6352  19.3911  19.5388  20.1581  20.6422
    23.7982  26.7370  26.9039  27.8091  28.1677  28.3982  28.5872  28.9673

          k = 0.4867 0.3118 0.0000 (  1796 PWs)   bands (ev):

   -44.2188 -44.2090 -20.6094 -20.5945 -20.5804 -20.4687 -20.4675 -20.4528
    -0.8226  -0.4957   5.6701   7.0180   7.5320   8.2859   8.9099  10.0711
    11.3154  12.2368  13.7628  14.8998  15.0457  15.1184  15.1433  15.7665
    16.8327  16.8524  17.3666  18.6474  19.3659  19.5500  20.1699  20.6555
    23.7844  26.6638  26.9010  27.8788  28.0547  28.3627  28.6057  29.0318

          k = 0.4833 0.3175 0.0000 (  1796 PWs)   bands (ev):

   -44.2188 -44.2090 -20.6092 -20.5944 -20.5801 -20.4687 -20.4679 -20.4532
    -0.8203  -0.4953   5.6747   7.0183   7.5351   8.2839   8.9043  10.0228
    11.3572  12.2412  13.7610  14.8901  15.0447  15.1157  15.1429  15.7701
    16.7988  16.8303  17.4408  18.6630  19.3345  19.5643  20.1851  20.6716
    23.7669  26.5806  26.8969  27.9385  27.9574  28.3208  28.6295  29.0414

          k = 0.4800 0.3233 0.0000 (  1796 PWs)   bands (ev):

   -44.2188 -44.2090 -20.6089 -20.5944 -20.5799 -20.4686 -20.4685 -20.4537
    -0.8176  -0.4948   5.6803   7.0187   7.5389   8.2816   8.8975   9.9676
    11.4044  12.2467  13.7586  14.8785  15.0437  15.1122  15.1423  15.7744
    16.7476  16.8274  17.5170  18.6820  19.2974  19.5819  20.2036  20.6901
    23.7457  26.4907  26.8911  27.8208  28.0418  28.2743  28.6584  29.0492

          k = 0.4767 0.3291 0.0000 (  1796 PWs)   bands (ev):

   -44.2188 -44.2090 -20.6086 -20.5943 -20.5796 -20.4692 -20.4686 -20.4544
    -0.8144  -0.4942   5.6868   7.0191   7.5434   8.2788   8.8896   9.9070
    11.4557  12.2531  13.7557  14.8650  15.0427  15.1080  15.1417  15.7795
    16.6989  16.8239  17.5952  18.7043  19.2554  19.6027  20.2255  20.7103
    23.7209  26.3959  26.8832  27.7023  28.1300  28.2246  28.6924  29.0543

          k = 0.4733 0.3349 0.0000 (  1796 PWs)   bands (ev):

   -44.2187 -44.2089 -20.6082 -20.5942 -20.5792 -20.4699 -20.4686 -20.4550
    -0.8108  -0.4936   5.6944   7.0196   7.5485   8.2757   8.8805   9.8420
    11.5102  12.2604  13.7523  14.8495  15.0419  15.1031  15.1410  15.7853
    16.6526  16.8199  17.6751  18.7298  19.2089  19.6267  20.2507  20.7318
    23.6928  26.2978  26.8727  27.5833  28.1731  28.2205  28.7313  29.0559

          k = 0.4700 0.3406 0.0000 (  1800 PWs)   bands (ev):

   -44.2187 -44.2089 -20.6078 -20.5941 -20.5788 -20.4708 -20.4685 -20.4558
    -0.8066  -0.4929   5.7030   7.0201   7.5543   8.2721   8.8704   9.7735
    11.5669  12.2687  13.7483  14.8323  15.0413  15.0974  15.1402  15.7918
    16.6086  16.8154  17.7566  18.7584  19.1587  19.6539  20.2793  20.7541
    23.6614  26.1971  26.8589  27.4642  28.1212  28.3125  28.7751  29.0536

          k = 0.4667 0.3464 0.0000 (  1796 PWs)   bands (ev):

   -44.2187 -44.2089 -20.6073 -20.5940 -20.5784 -20.4717 -20.4685 -20.4567
    -0.8020  -0.4921   5.7126   7.0207   7.5607   8.2682   8.8592   9.7022
    11.6253  12.2780  13.7436  14.8135  15.0411  15.0909  15.1392  15.7991
    16.5670  16.8103  17.8398  18.7900  19.1051  19.6842  20.3111  20.7769
    23.6269  26.0947  26.8412  27.3452  28.0699  28.4053  28.8238  29.0471

          k = 0.4633 0.3522 0.0000 (  1792 PWs)   bands (ev):

   -44.2186 -44.2088 -20.6068 -20.5938 -20.5779 -20.4728 -20.4684 -20.4576
    -0.7970  -0.4912   5.7232   7.0213   7.5677   8.2639   8.8470   9.6285
    11.6848  12.2882  13.7382  14.7931  15.0414  15.0835  15.1382  15.8070
    16.5276  16.8046  17.9244  18.8246  19.0486  19.7178  20.3463  20.7997
    23.5896  25.9909  26.8189  27.2263  28.0203  28.4983  28.8770  29.0362

          k = 0.4600 0.3579 0.0000 (  1792 PWs)   bands (ev):

   -44.2186 -44.2088 -20.6063 -20.5937 -20.5773 -20.4739 -20.4684 -20.4587
    -0.7915  -0.4903   5.7348   7.0220   7.5754   8.2592   8.8338   9.5529
    11.7453  12.2993  13.7321  14.7713  15.0423  15.0752  15.1370  15.8155
    16.4905  16.7983  18.0104  18.8620  18.9897  19.7546  20.3847  20.8223
    23.5495  25.8862  26.7914  27.1077  27.9735  28.5914  28.9347  29.0209

          k = 0.4567 0.3637 0.0000 (  1796 PWs)   bands (ev):

   -44.2185 -44.2087 -20.6057 -20.5935 -20.5768 -20.4751 -20.4683 -20.4598
    -0.7856  -0.4893   5.7474   7.0227   7.5836   8.2542   8.8198   9.4759
    11.8062  12.3113  13.7251  14.7482  15.0439  15.0660  15.1358  15.8247
    16.4554  16.7915  18.0975  18.9022  18.9288  19.7946  20.4264  20.8444
    23.5069  25.7808  26.7580  26.9894  27.9301  28.6841  28.9968  29.0015

          k = 0.4533 0.3695 0.0000 (  1792 PWs)   bands (ev):

   -44.2185 -44.2087 -20.6050 -20.5933 -20.5761 -20.4764 -20.4682 -20.4610
    -0.7793  -0.4883   5.7609   7.0235   7.5924   8.2489   8.8049   9.3976
    11.8675  12.3242  13.7174  14.7239  15.0464  15.0558  15.1344  15.8343
    16.4225  16.7841  18.1857  18.8661  18.9450  19.8379  20.4713  20.8659
    23.4620  25.6748  26.7184  26.8715  27.8908  28.7762  28.9780  29.0631

          k = 0.4500 0.3753 0.0000 (  1792 PWs)   bands (ev):

   -44.2184 -44.2086 -20.6044 -20.5931 -20.5755 -20.4778 -20.4681 -20.4623
    -0.7726  -0.4872   5.7755   7.0243   7.6017   8.2432   8.7892   9.3184
    11.9290  12.3380  13.7088  14.6985  15.0446  15.0498  15.1329  15.8445
    16.3915  16.7761  18.2748  18.8020  18.9902  19.8845  20.5193  20.8865
    23.4148  25.5686  26.6722  26.7540  27.8561  28.8676  28.9507  29.1333

          k = 0.4467 0.3810 0.0000 (  1792 PWs)   bands (ev):

   -44.2184 -44.2086 -20.6037 -20.5929 -20.5747 -20.4793 -20.4681 -20.4636
    -0.7655  -0.4860   5.7910   7.0250   7.6116   8.2373   8.7728   9.2385
    11.9905  12.3526  13.6993  14.6722  15.0325  15.0543  15.1313  15.8550
    16.3624  16.7674  18.3647  18.7368  19.0379  19.9343  20.5705  20.9062
    23.3657  25.4621  26.6194  26.6370  27.8262  28.9200  28.9582  29.2074

          k = 0.4433 0.3868 0.0000 (  1792 PWs)   bands (ev):

   -44.2183 -44.2085 -20.6029 -20.5927 -20.5740 -20.4808 -20.4680 -20.4650
    -0.7580  -0.4848   5.8074   7.0259   7.6220   8.2311   8.7557   9.1580
    12.0519  12.3681  13.6889  14.6452  15.0194  15.0600  15.1295  15.8660
    16.3352  16.7581  18.4552  18.6708  19.0878  19.9874  20.6247  20.9248
    23.3147  25.3557  26.5206  26.5602  27.8009  28.8862  29.0478  29.2850

          k = 0.4400 0.3926 0.0000 (  1792 PWs)   bands (ev):

   -44.2182 -44.2085 -20.6022 -20.5924 -20.5732 -20.4825 -20.4679 -20.4665
    -0.7502  -0.4836   5.8248   7.0267   7.6328   8.2246   8.7381   9.0772
    12.1132  12.3844  13.6776  14.6174  15.0052  15.0669  15.1276  15.8772
    16.3097  16.7482  18.5462  18.6042  19.1400  20.0439  20.6819  20.9423
    23.2621  25.2493  26.4047  26.4949  27.7802  28.8496  29.1364  29.3660

          k = 0.4367 0.3983 0.0000 (  1792 PWs)   bands (ev):

   -44.2182 -44.2084 -20.6014 -20.5921 -20.5723 -20.4842 -20.4681 -20.4678
    -0.7421  -0.4824   5.8432   7.0275   7.6441   8.2179   8.7199   8.9961
    12.1744  12.4014  13.6654  14.5891  14.9900  15.0752  15.1256  15.8886
    16.2859  16.7376  18.5373  18.6374  19.1941  20.1037  20.7420  20.9587
    23.2080  25.1431  26.2895  26.4239  27.7634  28.8106  29.2238  29.4501

          k = 0.4333 0.4041 0.0000 (  1788 PWs)   bands (ev):

   -44.2181 -44.2083 -20.6006 -20.5917 -20.5715 -20.4859 -20.4697 -20.4677
    -0.7336  -0.4812   5.8625   7.0283   7.6558   8.2109   8.7013   8.9149
    12.2353  12.4193  13.6522  14.5603  14.9739  15.0848  15.1234  15.9001
    16.2637  16.7262  18.4702  18.7289  19.2502  20.1668  20.8049  20.9738
    23.1525  25.0371  26.1749  26.3478  27.7504  28.7695  29.3099  29.5370

          k = 0.4300 0.4099 0.0000 (  1792 PWs)   bands (ev):

   -44.2181 -44.2083 -20.5998 -20.5914 -20.5705 -20.4878 -20.4714 -20.4676
    -0.7248  -0.4799   5.8827   7.0291   7.6679   8.2038   8.6824   8.8337
    12.2960  12.4378  13.6382  14.5312  14.9567  15.0958  15.1211  15.9118
    16.2430  16.7141  18.4033  18.8203  19.3082  20.2334  20.8705  20.9877
    23.0959  24.9315  26.0611  26.2672  27.7404  28.7268  29.3947  29.6265

          k = 0.4267 0.4157 0.0000 (  1792 PWs)   bands (ev):

   -44.2180 -44.2082 -20.5990 -20.5909 -20.5696 -20.4897 -20.4731 -20.4676
    -0.7158  -0.4786   5.9039   7.0298   7.6804   8.1964   8.6631   8.7527
    12.3564  12.4570  13.6233  14.5019  14.9385  15.1083  15.1187  15.9234
    16.2237  16.7013  18.3366  18.9115  19.3678  20.3034  20.9387  21.0004
    23.0382  24.8263  25.9479  26.1826  27.7331  28.6827  29.4782  29.7182

          k = 0.4233 0.4214 0.0000 (  1792 PWs)   bands (ev):

   -44.2179 -44.2081 -20.5982 -20.5904 -20.5686 -20.4916 -20.4749 -20.4675
    -0.7066  -0.4774   5.9259   7.0306   7.6932   8.1889   8.6437   8.6719
    12.4166  12.4770  13.6076  14.4724  14.9193  15.1161  15.1223  15.9350
    16.2058  16.6876  18.2705  19.0025  19.4290  20.3767  21.0094  21.0118
    22.9797  24.7216  25.8355  26.0946  27.7279  28.6376  29.5602  29.8119

          k = 0.4200 0.4272 0.0000 (  1788 PWs)   bands (ev):

   -44.2178 -44.2081 -20.5975 -20.5898 -20.5675 -20.4936 -20.4768 -20.4674
    -0.6971  -0.4761   5.9489   7.0312   7.7063   8.1813   8.5915   8.6241
    12.4765  12.4975  13.5911  14.4429  14.8992  15.1134  15.1377  15.9464
    16.1893  16.6732  18.2051  19.0931  19.4917  20.4534  21.0220  21.0823
    22.9204  24.6176  25.7240  26.0037  27.7245  28.5918  29.6408  29.7732

          k = 0.4167 0.4330 0.0000 (  1788 PWs)   bands (ev):

   -44.2178 -44.2080 -20.5968 -20.5891 -20.5664 -20.4957 -20.4786 -20.4673
    -0.6874  -0.4749   5.9727   7.0319   7.7197   8.1735   8.5115   8.6045
    12.5186  12.5361  13.5738  14.4135  14.8781  15.1106  15.1546  15.9577
    16.1740  16.6578  18.1406  19.1831  19.5557  20.5335  21.0310  21.1573
    22.8607  24.5142  25.6132  25.9103  27.7225  28.5457  29.6989  29.7198

          k = 0.4133 0.4388 0.0000 (  1792 PWs)   bands (ev):

   -44.2177 -44.2079 -20.5962 -20.5883 -20.5653 -20.4978 -20.4806 -20.4672
    -0.6775  -0.4737   5.9975   7.0325   7.7332   8.1657   8.4321   8.5849
    12.5403  12.5955  13.5559  14.3841  14.8560  15.1076  15.1729  15.9688
    16.1598  16.6415  18.0773  19.2724  19.6210  20.6168  21.0388  21.2342
    22.8006  24.4116  25.5034  25.8148  27.7216  28.4995  29.6221  29.7973

          k = 0.4100 0.4445 0.0000 (  1794 PWs)   bands (ev):

   -44.2176 -44.2078 -20.5956 -20.5875 -20.5642 -20.4999 -20.4825 -20.4671
    -0.6676  -0.4726   6.0231   7.0330   7.7470   8.1578   8.3534   8.5654
    12.5625  12.6546  13.5374  14.3550  14.8331  15.1045  15.1927  15.9795
    16.1468  16.6242  18.0153  19.3611  19.6874  20.7034  21.0455  21.3126
    22.7404  24.3099  25.3945  25.7176  27.7214  28.4536  29.5435  29.8732

          k = 0.4066 0.4503 0.0000 (  1794 PWs)   bands (ev):

   -44.2176 -44.2078 -20.5951 -20.5865 -20.5630 -20.5021 -20.4845 -20.4670
    -0.6575  -0.4715   6.0495   7.0334   7.7609   8.1498   8.2753   8.5460
    12.5851  12.7135  13.5183  14.3261  14.8092  15.1013  15.2139  15.9899
    16.1349  16.6059  17.9548  19.4489  19.7548  20.7930  21.0510  21.3922
    22.6804  24.2092  25.2866  25.6190  27.7218  28.4083  29.4634  29.9474

          k = 0.4033 0.4561 0.0000 (  1798 PWs)   bands (ev):

   -44.2175 -44.2077 -20.5946 -20.5854 -20.5617 -20.5044 -20.4866 -20.4669
    -0.6473  -0.4705   6.0767   7.0338   7.7749   8.1418   8.1981   8.5269
    12.6081  12.7721  13.4987  14.2975  14.7844  15.0980  15.2364  15.9999
    16.1241  16.5865  17.8960  19.5359  19.8230  20.8857  21.0555  21.4726
    22.6210  24.1094  25.1797  25.5193  27.7225  28.3638  29.3823  30.0200

          k = 0.4000 0.4618 0.0000 (  1796 PWs)   bands (ev):

   -44.2174 -44.2076 -20.5942 -20.5843 -20.5605 -20.5066 -20.4886 -20.4668
    -0.6370  -0.4695   6.1048   7.0340   7.7889   8.1218   8.1337   8.5082
    12.6315  12.8304  13.4787  14.2693  14.7589  15.0945  15.2603  16.0095
    16.1142  16.5660  17.8391  19.6220  19.8920  20.9811  21.0589  21.5529
    22.5627  24.0109  25.0739  25.4187  27.7235  28.3205  29.3005  30.0909

          k = 0.3966 0.4676 0.0000 (  1792 PWs)   bands (ev):

   -44.2173 -44.2076 -20.5939 -20.5830 -20.5592 -20.5089 -20.4907 -20.4667
    -0.6268  -0.4686   6.1336   7.0342   7.8030   8.0465   8.1257   8.4899
    12.6552  12.8885  13.4583  14.2415  14.7324  15.0910  15.2854  16.0186
    16.1053  16.5443  17.7843  19.7072  19.9615  21.0613  21.0792  21.6324
    22.5065  23.9137  24.9693  25.3174  27.7245  28.2786  29.2183  30.1600

          k = 0.3933 0.4734 0.0000 (  1792 PWs)   bands (ev):

   -44.2173 -44.2075 -20.5935 -20.5817 -20.5579 -20.5112 -20.4928 -20.4666
    -0.6166  -0.4678   6.1632   7.0343   7.8170   7.9723   8.1177   8.4720
    12.6792  12.9464  13.4377  14.2142  14.7053  15.0874  15.3118  16.0272
    16.0973  16.5214  17.7317  19.7915  20.0314  21.0628  21.1797  21.7093
    22.4536  23.8179  24.8658  25.2157  27.7255  28.2384  29.1359  30.2273

          k = 0.3900 0.4792 0.0000 (  1792 PWs)   bands (ev):

   -44.2172 -44.2074 -20.5932 -20.5804 -20.5565 -20.5135 -20.4950 -20.4665
    -0.6064  -0.4671   6.1936   7.0343   7.8309   7.8992   8.1098   8.4547
    12.7033  13.0040  13.4168  14.1873  14.6773  15.0838  15.3393  16.0352
    16.0902  16.4973  17.6816  19.8750  20.1015  21.0634  21.2824  21.7810
    22.4067  23.7236  24.7637  25.1138  27.7263  28.2002  29.0538  30.2929

          k = 0.3866 0.4849 0.0000 (  1786 PWs)   bands (ev):

   -44.2171 -44.2074 -20.5930 -20.5790 -20.5551 -20.5159 -20.4971 -20.4664
    -0.5963  -0.4666   6.2247   7.0341   7.8275   7.8447   8.1019   8.4380
    12.7275  13.0613  13.3957  14.1611  14.6487  15.0801  15.3680  16.0427
    16.0839  16.4718  17.6339  19.9575  20.1717  21.0631  21.3871  21.8431
    22.3699  23.6312  24.6629  25.0118  27.7271  28.1641  28.9719  30.3565

          k = 0.3833 0.4907 0.0000 (  1786 PWs)   bands (ev):

   -44.2171 -44.2073 -20.5927 -20.5775 -20.5537 -20.5182 -20.4993 -20.4663
    -0.5863  -0.4661   6.2564   7.0339   7.7571   7.8583   8.0942   8.4220
    12.7518  13.1183  13.3745  14.1354  14.6193  15.0764  15.3978  16.0497
    16.0785  16.4451  17.5890  20.0392  20.2417  21.0620  21.4934  21.8883
    22.3503  23.5407  24.5636  24.9100  27.7276  28.1305  28.8907  30.4183

          k = 0.3800 0.4965 0.0000 (  1790 PWs)   bands (ev):

   -44.2170 -44.2072 -20.5925 -20.5760 -20.5523 -20.5205 -20.5014 -20.4662
    -0.5765  -0.4658   6.2887   7.0336   7.6882   7.8717   8.0865   8.4067
    12.7761  13.1750  13.3532  14.1103  14.5894  15.0727  15.4285  16.0560
    16.0738  16.4171  17.5469  20.1201  20.3113  21.0601  21.6010  21.9086
    22.3557  23.4523  24.4660  24.8084  27.7281  28.0995  28.8103  30.4781

          k = 0.3766 0.5023 0.0000 (  1788 PWs)   bands (ev):

[...]
    16.4521  16.4524  17.0442  17.0442  20.5136  20.5137  22.1516  22.1516
    23.7256  23.7257  26.2292  26.2292  27.9607  27.9608  29.6808  29.6809

          k = 0.4600 0.3579 0.2504 (  1782 PWs)   bands (ev):

   -44.2140 -44.2134 -20.5912 -20.5906 -20.5327 -20.5321 -20.4666 -20.4660
    -0.6412  -0.6412   6.2027   6.2028   8.0995   8.0995   9.1710   9.1710
    12.0509  12.0513  14.7274  14.7275  14.9803  14.9804  15.1647  15.1649
    16.4754  16.4757  17.0781  17.0782  20.5413  20.5414  22.0719  22.0719
    23.7607  23.7608  26.1697  26.1697  27.9539  27.9539  29.7599  29.7600

          k = 0.4567 0.3637 0.2504 (  1782 PWs)   bands (ev):

   -44.2140 -44.2134 -20.5906 -20.5900 -20.5326 -20.5321 -20.4678 -20.4672
    -0.6377  -0.6377   6.2140   6.2140   8.0983   8.0984   9.1293   9.1293
    12.0727  12.0730  14.7147  14.7148  14.9638  14.9639  15.1678  15.1680
    16.4985  16.4988  17.1153  17.1154  20.5712  20.5713  21.9910  21.9910
    23.7933  23.7934  26.1093  26.1093  27.9448  27.9448  29.8428  29.8428

          k = 0.4533 0.3695 0.2504 (  1782 PWs)   bands (ev):

   -44.2139 -44.2133 -20.5899 -20.5893 -20.5325 -20.5320 -20.4691 -20.4685
    -0.6339  -0.6339   6.2261   6.2262   8.0971   8.0971   9.0854   9.0855
    12.0954  12.0957  14.7025  14.7025  14.9457  14.9458  15.1716  15.1718
    16.5213  16.5215  17.1557  17.1558  20.6032  20.6033  21.9093  21.9093
    23.8233  23.8233  26.0485  26.0485  27.9333  27.9334  29.9288  29.9289

          k = 0.4500 0.3753 0.2504 (  1782 PWs)   bands (ev):

   -44.2139 -44.2133 -20.5892 -20.5886 -20.5324 -20.5319 -20.4704 -20.4698
    -0.6300  -0.6299   6.2391   6.2391   8.0957   8.0958   9.0396   9.0396
    12.1188  12.1191  14.6906  14.6907  14.9266  14.9267  15.1756  15.1757
    16.5435  16.5438  17.1991  17.1992  20.6373  20.6374  21.8269  21.8269
    23.8503  23.8504  25.9878  25.9878  27.9195  27.9195  30.0175  30.0176

          k = 0.4467 0.3810 0.2504 (  1790 PWs)   bands (ev):

   -44.2138 -44.2132 -20.5884 -20.5878 -20.5323 -20.5318 -20.4718 -20.4712
    -0.6258  -0.6257   6.2529   6.2530   8.0943   8.0943   8.9920   8.9921
    12.1429  12.1432  14.6792  14.6793  14.9068  14.9069  15.1794  15.1795
    16.5653  16.5655  17.2453  17.2453  20.6732  20.6733  21.7443  21.7443
    23.8744  23.8744  25.9276  25.9276  27.9031  27.9032  30.1084  30.1085

          k = 0.4433 0.3868 0.2504 (  1786 PWs)   bands (ev):

   -44.2138 -44.2132 -20.5876 -20.5870 -20.5322 -20.5317 -20.4733 -20.4727
    -0.6213  -0.6213   6.2676   6.2676   8.0928   8.0928   8.9428   8.9429
    12.1675  12.1678  14.6682  14.6683  14.8869  14.8869  15.1828  15.1829
    16.5866  16.5868  17.2940  17.2940  20.7107  20.7109  21.6616  21.6617
    23.8953  23.8953  25.8684  25.8684  27.8843  27.8843  30.2008  30.2009

          k = 0.4400 0.3926 0.2504 (  1786 PWs)   bands (ev):

   -44.2137 -44.2131 -20.5868 -20.5862 -20.5321 -20.5316 -20.4748 -20.4742
    -0.6167  -0.6167   6.2831   6.2831   8.0912   8.0913   8.8922   8.8923
    12.1925  12.1928  14.6577  14.6578  14.8670  14.8670  15.1856  15.1856
    16.6075  16.6077  17.3449  17.3450  20.7496  20.7497  21.5795  21.5795
    23.9128  23.9129  25.8105  25.8105  27.8629  27.8629  30.2942  30.2943

          k = 0.4367 0.3983 0.2504 (  1786 PWs)   bands (ev):

   -44.2136 -44.2130 -20.5859 -20.5853 -20.5320 -20.5314 -20.4765 -20.4759
    -0.6120  -0.6119   6.2994   6.2995   8.0896   8.0896   8.8404   8.8404
    12.2178  12.2181  14.6477  14.6478  14.8473  14.8474  15.1876  15.1876
    16.6281  16.6283  17.3979  17.3979  20.7892  20.7893  21.4985  21.4986
    23.9270  23.9270  25.7543  25.7543  27.8390  27.8390  30.3879  30.3879

          k = 0.4333 0.4041 0.2504 (  1786 PWs)   bands (ev):

   -44.2136 -44.2130 -20.5850 -20.5844 -20.5319 -20.5313 -20.4782 -20.4776
    -0.6070  -0.6070   6.3166   6.3166   8.0879   8.0879   8.7875   8.7875
    12.2434  12.2437  14.6381  14.6382  14.8281  14.8282  15.1888  15.1888
    16.6484  16.6486  17.4525  17.4526  20.8285  20.8286  21.4198  21.4198
    23.9376  23.9376  25.7001  25.7002  27.8126  27.8126  30.4810  30.4810

          k = 0.4300 0.4099 0.2504 (  1782 PWs)   bands (ev):

   -44.2135 -44.2129 -20.5840 -20.5834 -20.5317 -20.5312 -20.4799 -20.4793
    -0.6019  -0.6019   6.3346   6.3346   8.0861   8.0861   8.7337   8.7337
    12.2690  12.2693  14.6290  14.6291  14.8096  14.8096  15.1890  15.1890
    16.6684  16.6687  17.5087  17.5087  20.8654  20.8655  21.3453  21.3454
    23.9445  23.9446  25.6484  25.6484  27.7836  27.7837  30.5725  30.5725

          k = 0.4267 0.4157 0.2504 (  1782 PWs)   bands (ev):

   -44.2134 -44.2129 -20.5830 -20.5824 -20.5316 -20.5311 -20.4817 -20.4811
    -0.5967  -0.5967   6.3533   6.3533   8.0843   8.0843   8.6791   8.6791
    12.2947  12.2950  14.6203  14.6204  14.7918  14.7919  15.1883  15.1883
    16.6883  16.6886  17.5660  17.5660  20.8960  20.8961  21.2793  21.2794
    23.9478  23.9478  25.5994  25.5994  27.7523  27.7523  30.6611  30.6612

          k = 0.4233 0.4214 0.2504 (  1782 PWs)   bands (ev):

   -44.2134 -44.2128 -20.5819 -20.5813 -20.5315 -20.5309 -20.4836 -20.4830
    -0.5913  -0.5913   6.3728   6.3729   8.0824   8.0824   8.6238   8.6239
    12.3203  12.3206  14.6120  14.6121  14.7750  14.7750  15.1865  15.1866
    16.7082  16.7084  17.6243  17.6244  20.9118  20.9119  21.2301  21.2302
    23.9472  23.9472  25.5533  25.5533  27.7185  27.7185  30.7453  30.7454

          k = 0.4200 0.4272 0.2504 (  1782 PWs)   bands (ev):

   -44.2133 -44.2127 -20.5808 -20.5802 -20.5314 -20.5308 -20.4855 -20.4849
    -0.5859  -0.5859   6.3931   6.3932   8.0804   8.0804   8.5681   8.5681
    12.3457  12.3460  14.6041  14.6041  14.7591  14.7592  15.1837  15.1838
    16.7279  16.7281  17.6834  17.6834  20.9013  20.9013  21.2092  21.2093
    23.9428  23.9429  25.5104  25.5105  27.6824  27.6824  30.8230  30.8231

          k = 0.4167 0.4330 0.2504 (  1786 PWs)   bands (ev):

   -44.2132 -44.2126 -20.5797 -20.5791 -20.5312 -20.5307 -20.4875 -20.4869
    -0.5804  -0.5804   6.4142   6.4142   8.0784   8.0784   8.5121   8.5121
    12.3709  12.3712  14.5965  14.5966  14.7445  14.7446  15.1798  15.1799
    16.7476  16.7478  17.7430  17.7430  20.8611  20.8611  21.2201  21.2202
    23.9346  23.9347  25.4710  25.4710  27.6441  27.6441  30.8917  30.8917

          k = 0.4133 0.4388 0.2504 (  1782 PWs)   bands (ev):

   -44.2132 -44.2126 -20.5785 -20.5779 -20.5311 -20.5306 -20.4895 -20.4889
    -0.5748  -0.5748   6.4360   6.4360   8.0763   8.0763   8.4559   8.4559
    12.3958  12.3961  14.5893  14.5893  14.7311  14.7312  15.1749  15.1750
    16.7673  16.7674  17.8030  17.8030  20.8008  20.8009  21.2531  21.2532
    23.9227  23.9228  25.4352  25.4352  27.6036  27.6036  30.9483  30.9483

          k = 0.4100 0.4445 0.2504 (  1786 PWs)   bands (ev):

   -44.2131 -44.2125 -20.5773 -20.5767 -20.5310 -20.5304 -20.4916 -20.4910
    -0.5691  -0.5691   6.4585   6.4585   8.0741   8.0741   8.3996   8.3996
    12.4203  12.4206  14.5824  14.5824  14.7191  14.7192  15.1688  15.1689
    16.7869  16.7871  17.8631  17.8631  20.7303  20.7304  21.2983  21.2984
    23.9072  23.9073  25.4031  25.4031  27.5611  27.5612  30.9902  30.9902

          k = 0.4066 0.4503 0.2504 (  1786 PWs)   bands (ev):

   -44.2130 -44.2124 -20.5760 -20.5754 -20.5308 -20.5303 -20.4936 -20.4931
    -0.5635  -0.5635   6.4816   6.4817   8.0717   8.0718   8.3434   8.3434
    12.4443  12.4446  14.5758  14.5758  14.7084  14.7086  15.1618  15.1619
    16.8065  16.8066  17.9232  17.9232  20.6550  20.6550  21.3503  21.3504
    23.8883  23.8883  25.3747  25.3747  27.5168  27.5168  31.0157  31.0157

          k = 0.4033 0.4561 0.2504 (  1786 PWs)   bands (ev):

   -44.2129 -44.2124 -20.5747 -20.5741 -20.5307 -20.5302 -20.4958 -20.4952
    -0.5578  -0.5578   6.5055   6.5055   8.0692   8.0692   8.2875   8.2875
    12.4678  12.4680  14.5695  14.5695  14.6992  14.6994  15.1537  15.1538
    16.8260  16.8262  17.9832  17.9832  20.5773  20.5774  21.4064  21.4065
    23.8661  23.8662  25.3501  25.3501  27.4707  27.4707  31.0255  31.0255

          k = 0.4000 0.4618 0.2504 (  1782 PWs)   bands (ev):

   -44.2129 -44.2123 -20.5734 -20.5728 -20.5306 -20.5300 -20.4979 -20.4973
    -0.5522  -0.5521   6.5300   6.5300   8.0664   8.0664   8.2322   8.2322
    12.4906  12.4909  14.5636  14.5637  14.6914  14.6916  15.1445  15.1446
    16.8454  16.8456  18.0429  18.0429  20.4987  20.4988  21.4652  21.4653
    23.8410  23.8411  25.3291  25.3292  27.4231  27.4231  31.0225  31.0225

          k = 0.3966 0.4676 0.2504 (  1778 PWs)   bands (ev):

   -44.2128 -44.2122 -20.5720 -20.5714 -20.5305 -20.5299 -20.5001 -20.4995
    -0.5465  -0.5465   6.5551   6.5552   8.0627   8.0627   8.1781   8.1781
    12.5127  12.5130  14.5582  14.5583  14.6851  14.6853  15.1344  15.1345
    16.8647  16.8649  18.1022  18.1022  20.4199  20.4200  21.5259  21.5260
    23.8133  23.8134  25.3119  25.3119  27.3740  27.3740  31.0101  31.0101

          k = 0.3933 0.4734 0.2504 (  1778 PWs)   bands (ev):

   -44.2127 -44.2121 -20.5706 -20.5700 -20.5303 -20.5298 -20.5023 -20.5017
    -0.5410  -0.5410   6.5809   6.5809   8.0565   8.0565   8.1270   8.1271
    12.5341  12.5343  14.5534  14.5535  14.6801  14.6803  15.1232  15.1234
    16.8838  16.8840  18.1609  18.1609  20.3414  20.3414  21.5878  21.5879
    23.7834  23.7835  25.2981  25.2981  27.3236  27.3237  30.9916  30.9916

          k = 0.3900 0.4792 0.2504 (  1774 PWs)   bands (ev):

   -44.2127 -44.2121 -20.5692 -20.5686 -20.5302 -20.5297 -20.5045 -20.5039
    -0.5355  -0.5355   6.6071   6.6072   8.0391   8.0392   8.0876   8.0876
    12.5546  12.5547  14.5492  14.5494  14.6764  14.6766  15.1112  15.1113
    16.9027  16.9029  18.2189  18.2189  20.2635  20.2636  21.6503  21.6504
    23.7516  23.7517  25.2878  25.2878  27.2723  27.2723  30.9693  30.9693

          k = 0.3866 0.4849 0.2504 (  1766 PWs)   bands (ev):

   -44.2126 -44.2120 -20.5678 -20.5672 -20.5301 -20.5295 -20.5068 -20.5062
    -0.5301  -0.5301   6.6339   6.6339   7.9992   7.9992   8.0716   8.0716
    12.5741  12.5743  14.5458  14.5460  14.6740  14.6742  15.0982  15.0984
    16.9213  16.9215  18.2762  18.2762  20.1865  20.1865  21.7132  21.7133
    23.7184  23.7185  25.2807  25.2807  27.2200  27.2201  30.9451  30.9451

          k = 0.3833 0.4907 0.2504 (  1762 PWs)   bands (ev):

   -44.2125 -44.2119 -20.5663 -20.5657 -20.5300 -20.5294 -20.5090 -20.5084
    -0.5249  -0.5249   6.6611   6.6612   7.9499   7.9499   8.0657   8.0657
    12.5927  12.5928  14.5433  14.5435  14.6727  14.6729  15.0844  15.0845
    16.9396  16.9397  18.3327  18.3327  20.1106  20.1106  21.7758  21.7759
    23.6842  23.6843  25.2767  25.2768  27.1672  27.1672  30.9199  30.9199

          k = 0.3800 0.4965 0.2504 (  1762 PWs)   bands (ev):

   -44.2125 -44.2119 -20.5647 -20.5641 -20.5299 -20.5293 -20.5112 -20.5107
    -0.5198  -0.5198   6.6888   6.6888   7.8992   7.8992   8.0622   8.0623
    12.6102  12.6103  14.5416  14.5419  14.6724  14.6726  15.0698  15.0699
    16.9574  16.9575  18.3881  18.3881  20.0360  20.0360  21.8378  21.8379
    23.6494  23.6495  25.2757  25.2757  27.1140  27.1140  30.8947  30.8947

          k = 0.3766 0.5023 0.2504 (  1762 PWs)   bands (ev):

   -44.2124 -44.2118 -20.5632 -20.5626 -20.5297 -20.5292 -20.5135 -20.5129
    -0.5149  -0.5149   6.7167   6.7168   7.8488   7.8488   8.0596   8.0596
    12.6266  12.6267  14.5410  14.5413  14.6731  14.6734  15.0544  15.0545
    16.9747  16.9748  18.4425  18.4425  19.9629  19.9629  21.8987  21.8988
    23.6145  23.6146  25.2775  25.2775  27.0606  27.0606  30.8699  30.8699

          k = 0.3733 0.5080 0.2504 (  1762 PWs)   bands (ev):

   -44.2124 -44.2118 -20.5616 -20.5610 -20.5296 -20.5291 -20.5157 -20.5151
    -0.5102  -0.5102   6.7450   6.7450   7.7992   7.7992   8.0574   8.0574
    12.6419  12.6420  14.5414  14.5417  14.6747  14.6750  15.0383  15.0385
    16.9914  16.9915  18.4958  18.4958  19.8915  19.8915  21.9580  21.9581
    23.5800  23.5800  25.2819  25.2819  27.0075  27.0075  30.8460  30.8460

          k = 0.3700 0.5138 0.2504 (  1762 PWs)   bands (ev):

   -44.2123 -44.2117 -20.5600 -20.5594 -20.5295 -20.5290 -20.5179 -20.5174
    -0.5058  -0.5058   6.7733   6.7733   7.7508   7.7509   8.0554   8.0554
    12.6559  12.6560  14.5429  14.5432  14.6771  14.6773  15.0217  15.0218
    17.0074  17.0075  18.5478  18.5478  19.8220  19.8221  22.0153  22.0154
    23.5462  23.5462  25.2887  25.2887  26.9548  26.9548  30.8233  30.8233

          k = 0.3666 0.5196 0.2504 (  1758 PWs)   bands (ev):

   -44.2123 -44.2117 -20.5584 -20.5578 -20.5295 -20.5289 -20.5201 -20.5196
    -0.5016  -0.5016   6.8017   6.8017   7.7039   7.7040   8.0536   8.0536
    12.6687  12.6689  14.5455  14.5458  14.6802  14.6804  15.0046  15.0047
    17.0226  17.0227  18.5983  18.5983  19.7547  19.7548  22.0699  22.0699
    23.5136  23.5136  25.2978  25.2978  26.9031  26.9031  30.8019  30.8019

          k = 0.3633 0.5253 0.2504 (  1758 PWs)   bands (ev):

   -44.2122 -44.2116 -20.5567 -20.5562 -20.5294 -20.5288 -20.5223 -20.5218
    -0.4977  -0.4976   6.8299   6.8299   7.6588   7.6588   8.0519   8.0519
    12.6803  12.6804  14.5491  14.5495  14.6839  14.6841  14.9871  14.9872
    17.0369  17.0370  18.6473  18.6474  19.6898  19.6899  22.1212  22.1213
    23.4828  23.4828  25.3088  25.3088  26.8527  26.8527  30.7820  30.7820

          k = 0.3600 0.5311 0.2504 (  1758 PWs)   bands (ev):

   -44.2122 -44.2116 -20.5551 -20.5545 -20.5293 -20.5288 -20.5245 -20.5239
    -0.4940  -0.4940   6.8576   6.8577   7.6156   7.6157   8.0504   8.0504
    12.6906  12.6907  14.5538  14.5541  14.6881  14.6883  14.9694  14.9696
    17.0502  17.0503  18.6946  18.6946  19.6277  19.6278  22.1688  22.1689
    23.4542  23.4542  25.3215  25.3215  26.8041  26.8042  30.7638  30.7638

          k = 0.3566 0.5369 0.2504 (  1766 PWs)   bands (ev):

   -44.2121 -44.2115 -20.5534 -20.5528 -20.5293 -20.5287 -20.5266 -20.5260
    -0.4907  -0.4907   6.8847   6.8847   7.5748   7.5749   8.0491   8.0491
    12.6996  12.6997  14.5592  14.5596  14.6927  14.6928  14.9518  14.9519
    17.0624  17.0624  18.7398  18.7398  19.5689  19.5689  22.2120  22.2120
    23.4282  23.4282  25.3355  25.3355  26.7580  26.7580  30.7475  30.7475

          k = 0.3533 0.5427 0.2504 (  1766 PWs)   bands (ev):

   -44.2121 -44.2115 -20.5517 -20.5511 -20.5293 -20.5291 -20.5282 -20.5280
    -0.4878  -0.4878   6.9107   6.9107   7.5369   7.5369   8.0478   8.0479
    12.7074  12.7074  14.5655  14.5659  14.6973  14.6975  14.9345  14.9347
    17.0733  17.0733  18.7824  18.7824  19.5138  19.5139  22.2502  22.2503
    23.4052  23.4052  25.3502  25.3502  26.7150  26.7150  30.7330  30.7330

          k = 0.3500 0.5484 0.2504 (  1766 PWs)   bands (ev):

   -44.2121 -44.2115 -20.5500 -20.5494 -20.5309 -20.5304 -20.5290 -20.5285
    -0.4853  -0.4853   6.9350   6.9350   7.5024   7.5024   8.0468   8.0468
    12.7138  12.7139  14.5722  14.5727  14.7019  14.7021  14.9180  14.9182
    17.0828  17.0829  18.8220  18.8220  19.4633  19.4634  22.2829  22.2830
    23.3857  23.3857  25.3651  25.3651  26.6758  26.6759  30.7206  30.7206

          k = 0.3466 0.5542 0.2504 (  1770 PWs)   bands (ev):

   -44.2120 -44.2114 -20.5483 -20.5477 -20.5329 -20.5323 -20.5290 -20.5285
    -0.4831  -0.4831   6.9569   6.9569   7.4720   7.4721   8.0459   8.0459
    12.7190  12.7191  14.5792  14.5797  14.7061  14.7062  14.9029  14.9030
    17.0909  17.0910  18.8576  18.8576  19.4183  19.4184  22.3098  22.3099
    23.3699  23.3699  25.3793  25.3793  26.6415  26.6415  30.7102  30.7102

          k = 0.3433 0.5600 0.2504 (  1770 PWs)   bands (ev):

   -44.2120 -44.2114 -20.5465 -20.5460 -20.5348 -20.5342 -20.5290 -20.5284
    -0.4814  -0.4814   6.9756   6.9756   7.4468   7.4468   8.0452   8.0452
    12.7230  12.7231  14.5861  14.5865  14.7094  14.7095  14.8897  14.8898
    17.0974  17.0974  18.8879  18.8879  19.3805  19.3806  22.3306  22.3306
    23.3579  23.3579  25.3921  25.3921  26.6130  26.6130  30.7020  30.7020

          k = 0.3400 0.5657 0.2504 (  1770 PWs)   bands (ev):

   -44.2120 -44.2114 -20.5449 -20.5443 -20.5366 -20.5361 -20.5290 -20.5284
    -0.4802  -0.4802   6.9899   6.9900   7.4277   7.4277   8.0446   8.0446
    12.7258  12.7258  14.5922  14.5926  14.7116  14.7116  14.8795  14.8796
    17.1022  17.1022  18.9113  18.9113  19.3515  19.3516  22.3451  22.3452
    23.3497  23.3497  25.4025  25.4025  26.5914  26.5914  30.6960  30.6960

          k = 0.3366 0.5715 0.2504 (  1770 PWs)   bands (ev):

   -44.2120 -44.2114 -20.5433 -20.5429 -20.5381 -20.5377 -20.5289 -20.5284
    -0.4794  -0.4794   6.9990   6.9990   7.4157   7.4158   8.0443   8.0443
    12.7275  12.7275  14.5966  14.5971  14.7124  14.7125  14.8730  14.8731
    17.1051  17.1051  18.9261  18.9261  19.3332  19.3333  22.3536  22.3537
    23.3450  23.3450  25.4093  25.4094  26.5778  26.5778  30.6924  30.6924

          k = 0.3333 0.5773 0.2504 (  1770 PWs)   bands (ev):

   -44.2120 -44.2114 -20.5424 -20.5424 -20.5387 -20.5387 -20.5289 -20.5284
    -0.4792  -0.4791   7.0021   7.0021   7.4117   7.4117   8.0442   8.0442
    12.7280  12.7280  14.5984  14.5989  14.7125  14.7125  14.8708  14.8708
    17.1061  17.1061  18.9310  18.9310  19.3271  19.3272  22.3564  22.3564
    23.3436  23.3436  25.4118  25.4118  26.5730  26.5730  30.6911  30.6911

     Writing all to output data dir ./out/TiS.save/

     init_run     :      0.93s CPU      0.79s WALL (       1 calls)
     electrons    :     52.53s CPU     29.14s WALL (       1 calls)

     Called by init_run:
     wfcinit      :      0.00s CPU      0.00s WALL (       1 calls)
     wfcinit:atom :      0.03s CPU      0.02s WALL (      24 calls)
     wfcinit:wfcr :      1.37s CPU      0.71s WALL (      24 calls)
     potinit      :      0.28s CPU      0.16s WALL (       1 calls)
     hinit0       :      0.56s CPU      0.55s WALL (       1 calls)

     Called by electrons:
     c_bands      :     52.48s CPU     29.11s WALL (       1 calls)
     v_of_rho     :      0.26s CPU      0.14s WALL (       1 calls)
     v_h          :      0.01s CPU      0.00s WALL (       1 calls)
     v_xc         :      0.26s CPU      0.14s WALL (       1 calls)
     newd         :      0.07s CPU      0.07s WALL (       1 calls)

     Called by c_bands:
     init_us_2    :      0.04s CPU      0.03s WALL (      24 calls)
     init_us_2:cp :      0.04s CPU      0.03s WALL (      24 calls)
     cegterg      :     49.34s CPU     24.79s WALL (      67 calls)

     Called by sum_band:

     Called by *egterg:
     cdiaghg      :      3.75s CPU      1.83s WALL (    1167 calls)
     cegterg:over :      3.75s CPU      1.87s WALL (    1143 calls)
     cegterg:upda :      3.71s CPU      1.86s WALL (    1143 calls)
     cegterg:last :      7.01s CPU      3.54s WALL (     621 calls)
     h_psi        :     28.60s CPU     14.41s WALL (    1234 calls)
     s_psi        :      1.97s CPU      1.00s WALL (    1234 calls)
     g_psi        :      0.35s CPU      0.18s WALL (    1143 calls)

     Called by h_psi:
     h_psi:calbec :      2.02s CPU      1.07s WALL (    1234 calls)
     vloc_psi     :     23.91s CPU     12.02s WALL (    1234 calls)
     add_vuspsi   :      2.24s CPU      1.09s WALL (    1234 calls)

     General routines
     calbec       :      2.01s CPU      1.07s WALL (    1234 calls)
     fft          :      0.03s CPU      0.02s WALL (      23 calls)
     ffts         :      0.00s CPU      0.00s WALL (       2 calls)
     fftw         :     20.63s CPU     10.36s WALL (   51802 calls)
     interpolate  :      0.01s CPU      0.00s WALL (       2 calls)
     davcio       :      0.05s CPU      2.19s WALL (      48 calls)

     Parallel routines

     PWSCF        :     56.28s CPU   1m 5.98s WALL


   This run was terminated on:   7:22:42   6Oct2023            

=------------------------------------------------------------------------------=
   JOB DONE.
=------------------------------------------------------------------------------=
