
     Program PWSCF v.7.1 starts on  6Oct2023 at  7:20:20 

     This program is part of the open-source Quantum ESPRESSO suite
     for quantum simulation of materials; please cite
         "P. Giannozzi et al., J. Phys.:Condens. Matter 21 395502 (2009);
         "P. Giannozzi et al., J. Phys.:Condens. Matter 29 465901 (2017);
         "P. Giannozzi et al., J. Chem. Phys. 152 154105 (2020);
          URL http://www.quantum-espresso.org", 
     in publications or presentations arising from this work. More details at
     http://www.quantum-espresso.org/quote

     Parallel version (MPI & OpenMP), running on      60 processor cores
     Number of MPI processes:                30
     Threads/MPI process:                     2

     MPI processes distributed on     5 nodes
     13071 MiB available memory on the printing compute node when the environment starts

     Reading input from TiS.scf.in

     Current dimensions of program PWSCF are:
     Max number of different atomic species (ntypx) = 10
     Max number of k-points (npk) =  40000
     Max angular momentum in pseudopotentials (lmaxx) =  4

     K-points division:     npool     =       5
     R & G space division:  proc/nbgrp/npool/nimage =       6
     Subspace diagonalization in iterative solution of the eigenvalue problem:
     a serial algorithm will be used


     Parallelization info
     --------------------
     sticks:   dense  smooth     PW     G-vecs:    dense   smooth      PW
     Min         124      71     25                 5512     2374     467
     Max         125      73     26                 5523     2379     470
     Sum         745     433    151                33091    14259    2807

     Using Slab Decomposition



     bravais-lattice index     =            0
     lattice parameter (alat)  =       6.2293  a.u.
     unit-cell volume          =     417.9542 (a.u.)^3
     number of atoms/cell      =            4
     number of atomic types    =            2
     number of electrons       =        36.00
     number of Kohn-Sham states=           22
     kinetic-energy cutoff     =      40.0000  Ry
     charge density cutoff     =     280.0000  Ry
     scf convergence threshold =      8.0E-10
     mixing beta               =       0.4000
     number of iterations used =            8  plain     mixing
     Exchange-correlation=  SLA  PW   PBX  PBC
                           (   1   4   3   4   0   0   0)

     celldm(1)=   6.229263  celldm(2)=   0.000000  celldm(3)=   0.000000
     celldm(4)=   0.000000  celldm(5)=   0.000000  celldm(6)=   0.000000

     crystal axes: (cart. coord. in units of alat)
               a(1) = (   1.000000   0.000000   0.000000 )  
               a(2) = (  -0.500000   0.866025   0.000000 )  
               a(3) = (   0.000000   0.000000   1.996586 )  

     reciprocal axes: (cart. coord. in units 2 pi/alat)
               b(1) = (  1.000000  0.577350 -0.000000 )  
               b(2) = (  0.000000  1.154701  0.000000 )  
               b(3) = (  0.000000 -0.000000  0.500855 )  


     PseudoPot. # 1 for S  read from file:
     /home/tcmp/apps/pseudopotential/s_pbe_v1.4.uspp.F.UPF
     MD5 check sum: 88d86576ff6df21479756cfb9bdac1df
     Pseudo is Ultrasoft + core correction, Zval =  6.0
     Generated by new atomic code, or converted to UPF format
     Using radial grid of  907 points,  6 beta functions with: 
                l(1) =   0
                l(2) =   0
                l(3) =   1
                l(4) =   1
                l(5) =   2
                l(6) =   2
     Q(r) pseudized with  8 coefficients,  rinner =    1.300   1.300   1.300
                                                       1.300   1.300

     PseudoPot. # 2 for Ti read from file:
     /home/tcmp/apps/pseudopotential/ti_pbe_v1.4.uspp.F.UPF
     MD5 check sum: 88a00a6731bd790ddea75d31a80cb452
     Pseudo is Ultrasoft + core correction, Zval = 12.0
     Generated by new atomic code, or converted to UPF format
     Using radial grid of  851 points,  6 beta functions with: 
                l(1) =   0
                l(2) =   0
                l(3) =   1
                l(4) =   1
                l(5) =   2
                l(6) =   2
     Q(r) pseudized with  6 coefficients,  rinner =    1.000   1.000   1.000
                                                       1.000   1.000

     atomic species   valence    mass     pseudopotential
        S              6.00    32.06500     S ( 1.00)
        Ti            12.00    47.86700     Ti( 1.00)

     Starting magnetic structure 
     atomic species   magnetization
        S            0.100
        Ti           0.417

     No symmetry found


                                    s                        frac. trans.

      isym =  1     identity                                     

 cryst.   s( 1) = (     1          0          0      )
                  (     0          1          0      )
                  (     0          0          1      )

 cart.    s( 1) = (  1.0000000 -0.0000000  0.0000000 )
                  (  0.0000000  1.0000000  0.0000000 )
                  (  0.0000000  0.0000000  1.0000000 )


   Cartesian axes

     site n.     atom                  positions (alat units)
         1           S   tau(   1) = (   0.5000000   0.2887168   0.4991465  )
         2           S   tau(   2) = (  -0.0000000   0.5773086   1.4974395  )
         3           Ti  tau(   3) = (   0.0000000   0.0000000   0.0000000  )
         4           Ti  tau(   4) = (   0.0000000   0.0000000   0.9982930  )

   Crystallographic axes

     site n.     atom                  positions (cryst. coord.)
         1           S   tau(   1) = (  0.6666907  0.3333814  0.2500000  )
         2           S   tau(   2) = (  0.3333093  0.6666186  0.7500000  )
         3           Ti  tau(   3) = (  0.0000000  0.0000000  0.0000000  )
         4           Ti  tau(   4) = (  0.0000000  0.0000000  0.5000000  )

     number of k points=   362  Marzari-Vanderbilt smearing, width (Ry)=  0.0147
                       cart. coord. in units 2pi/alat
        k(    1) = (   0.0000000   0.0000000   0.0000000), wk =   0.0013889
        k(    2) = (   0.0000000   0.0000000   0.1001710), wk =   0.0027778
        k(    3) = (   0.0000000   0.0000000   0.2003420), wk =   0.0027778
        k(    4) = (   0.0000000   0.0962250   0.0000000), wk =   0.0027778
        k(    5) = (   0.0000000   0.0962250   0.1001710), wk =   0.0027778
        k(    6) = (   0.0000000   0.0962250   0.2003420), wk =   0.0027778
        k(    7) = (   0.0000000   0.0962250  -0.2003420), wk =   0.0027778
        k(    8) = (   0.0000000   0.0962250  -0.1001710), wk =   0.0027778
        k(    9) = (   0.0000000   0.1924501   0.0000000), wk =   0.0027778
        k(   10) = (   0.0000000   0.1924501   0.1001710), wk =   0.0027778
        k(   11) = (   0.0000000   0.1924501   0.2003420), wk =   0.0027778
        k(   12) = (   0.0000000   0.1924501  -0.2003420), wk =   0.0027778
        k(   13) = (   0.0000000   0.1924501  -0.1001710), wk =   0.0027778
        k(   14) = (   0.0000000   0.2886751   0.0000000), wk =   0.0027778
        k(   15) = (   0.0000000   0.2886751   0.1001710), wk =   0.0027778
        k(   16) = (   0.0000000   0.2886751   0.2003420), wk =   0.0027778
        k(   17) = (   0.0000000   0.2886751  -0.2003420), wk =   0.0027778
        k(   18) = (   0.0000000   0.2886751  -0.1001710), wk =   0.0027778
        k(   19) = (   0.0000000   0.3849002   0.0000000), wk =   0.0027778
        k(   20) = (   0.0000000   0.3849002   0.1001710), wk =   0.0027778
        k(   21) = (   0.0000000   0.3849002   0.2003420), wk =   0.0027778
        k(   22) = (   0.0000000   0.3849002  -0.2003420), wk =   0.0027778
        k(   23) = (   0.0000000   0.3849002  -0.1001710), wk =   0.0027778
        k(   24) = (   0.0000000   0.4811252   0.0000000), wk =   0.0027778
        k(   25) = (   0.0000000   0.4811252   0.1001710), wk =   0.0027778
        k(   26) = (   0.0000000   0.4811252   0.2003420), wk =   0.0027778
        k(   27) = (   0.0000000   0.4811252  -0.2003420), wk =   0.0027778
        k(   28) = (   0.0000000   0.4811252  -0.1001710), wk =   0.0027778
        k(   29) = (   0.0000000  -0.5773503   0.0000000), wk =   0.0013889
        k(   30) = (   0.0000000  -0.5773503   0.1001710), wk =   0.0027778
        k(   31) = (   0.0000000  -0.5773503   0.2003420), wk =   0.0027778
        k(   32) = (   0.0833333   0.0481125   0.0000000), wk =   0.0027778
        k(   33) = (   0.0833333   0.0481125   0.1001710), wk =   0.0027778
        k(   34) = (   0.0833333   0.0481125   0.2003420), wk =   0.0027778
        k(   35) = (   0.0833333   0.0481125  -0.2003420), wk =   0.0027778
        k(   36) = (   0.0833333   0.0481125  -0.1001710), wk =   0.0027778
        k(   37) = (   0.0833333   0.1443376   0.0000000), wk =   0.0027778
        k(   38) = (   0.0833333   0.1443376   0.1001710), wk =   0.0027778
        k(   39) = (   0.0833333   0.1443376   0.2003420), wk =   0.0027778
        k(   40) = (   0.0833333   0.1443376  -0.2003420), wk =   0.0027778
        k(   41) = (   0.0833333   0.1443376  -0.1001710), wk =   0.0027778
        k(   42) = (   0.0833333   0.2405626   0.0000000), wk =   0.0027778
        k(   43) = (   0.0833333   0.2405626   0.1001710), wk =   0.0027778
        k(   44) = (   0.0833333   0.2405626   0.2003420), wk =   0.0027778
        k(   45) = (   0.0833333   0.2405626  -0.2003420), wk =   0.0027778
        k(   46) = (   0.0833333   0.2405626  -0.1001710), wk =   0.0027778
        k(   47) = (   0.0833333   0.3367877   0.0000000), wk =   0.0027778
        k(   48) = (   0.0833333   0.3367877   0.1001710), wk =   0.0027778
        k(   49) = (   0.0833333   0.3367877   0.2003420), wk =   0.0027778
        k(   50) = (   0.0833333   0.3367877  -0.2003420), wk =   0.0027778
        k(   51) = (   0.0833333   0.3367877  -0.1001710), wk =   0.0027778
        k(   52) = (   0.0833333   0.4330127   0.0000000), wk =   0.0027778
        k(   53) = (   0.0833333   0.4330127   0.1001710), wk =   0.0027778
        k(   54) = (   0.0833333   0.4330127   0.2003420), wk =   0.0027778
        k(   55) = (   0.0833333   0.4330127  -0.2003420), wk =   0.0027778
        k(   56) = (   0.0833333   0.4330127  -0.1001710), wk =   0.0027778
        k(   57) = (   0.0833333   0.5292377   0.0000000), wk =   0.0027778
        k(   58) = (   0.0833333   0.5292377   0.1001710), wk =   0.0027778
        k(   59) = (   0.0833333   0.5292377   0.2003420), wk =   0.0027778
        k(   60) = (   0.0833333   0.5292377  -0.2003420), wk =   0.0027778
        k(   61) = (   0.0833333   0.5292377  -0.1001710), wk =   0.0027778
        k(   62) = (   0.0833333  -0.5292377   0.0000000), wk =   0.0027778
        k(   63) = (   0.0833333  -0.5292377   0.1001710), wk =   0.0027778
        k(   64) = (   0.0833333  -0.5292377   0.2003420), wk =   0.0027778
        k(   65) = (   0.0833333  -0.5292377  -0.2003420), wk =   0.0027778
        k(   66) = (   0.0833333  -0.5292377  -0.1001710), wk =   0.0027778
        k(   67) = (   0.0833333  -0.4330127   0.0000000), wk =   0.0027778
        k(   68) = (   0.0833333  -0.4330127   0.1001710), wk =   0.0027778
        k(   69) = (   0.0833333  -0.4330127   0.2003420), wk =   0.0027778
        k(   70) = (   0.0833333  -0.4330127  -0.2003420), wk =   0.0027778
        k(   71) = (   0.0833333  -0.4330127  -0.1001710), wk =   0.0027778
        k(   72) = (   0.0833333  -0.3367877   0.0000000), wk =   0.0027778
        k(   73) = (   0.0833333  -0.3367877   0.1001710), wk =   0.0027778
        k(   74) = (   0.0833333  -0.3367877   0.2003420), wk =   0.0027778
        k(   75) = (   0.0833333  -0.3367877  -0.2003420), wk =   0.0027778
        k(   76) = (   0.0833333  -0.3367877  -0.1001710), wk =   0.0027778
        k(   77) = (   0.0833333  -0.2405626   0.0000000), wk =   0.0027778
        k(   78) = (   0.0833333  -0.2405626   0.1001710), wk =   0.0027778
        k(   79) = (   0.0833333  -0.2405626   0.2003420), wk =   0.0027778
        k(   80) = (   0.0833333  -0.2405626  -0.2003420), wk =   0.0027778
        k(   81) = (   0.0833333  -0.2405626  -0.1001710), wk =   0.0027778
        k(   82) = (   0.0833333  -0.1443376   0.0000000), wk =   0.0027778
        k(   83) = (   0.0833333  -0.1443376   0.1001710), wk =   0.0027778
        k(   84) = (   0.0833333  -0.1443376   0.2003420), wk =   0.0027778
        k(   85) = (   0.0833333  -0.1443376  -0.2003420), wk =   0.0027778
        k(   86) = (   0.0833333  -0.1443376  -0.1001710), wk =   0.0027778
        k(   87) = (   0.0833333  -0.0481125   0.0000000), wk =   0.0027778
        k(   88) = (   0.0833333  -0.0481125   0.1001710), wk =   0.0027778
        k(   89) = (   0.0833333  -0.0481125   0.2003420), wk =   0.0027778
        k(   90) = (   0.0833333  -0.0481125  -0.2003420), wk =   0.0027778
        k(   91) = (   0.0833333  -0.0481125  -0.1001710), wk =   0.0027778
        k(   92) = (   0.1666667   0.0962250   0.0000000), wk =   0.0027778
        k(   93) = (   0.1666667   0.0962250   0.1001710), wk =   0.0027778
        k(   94) = (   0.1666667   0.0962250   0.2003420), wk =   0.0027778
        k(   95) = (   0.1666667   0.0962250  -0.2003420), wk =   0.0027778
        k(   96) = (   0.1666667   0.0962250  -0.1001710), wk =   0.0027778
        k(   97) = (   0.1666667   0.1924501   0.0000000), wk =   0.0027778
        k(   98) = (   0.1666667   0.1924501   0.1001710), wk =   0.0027778
        k(   99) = (   0.1666667   0.1924501   0.2003420), wk =   0.0027778
        k(  100) = (   0.1666667   0.1924501  -0.2003420), wk =   0.0027778
        k(  101) = (   0.1666667   0.1924501  -0.1001710), wk =   0.0027778
        k(  102) = (   0.1666667   0.2886751   0.0000000), wk =   0.0027778
        k(  103) = (   0.1666667   0.2886751   0.1001710), wk =   0.0027778
        k(  104) = (   0.1666667   0.2886751   0.2003420), wk =   0.0027778
        k(  105) = (   0.1666667   0.2886751  -0.2003420), wk =   0.0027778
        k(  106) = (   0.1666667   0.2886751  -0.1001710), wk =   0.0027778
        k(  107) = (   0.1666667   0.3849002   0.0000000), wk =   0.0027778
        k(  108) = (   0.1666667   0.3849002   0.1001710), wk =   0.0027778
        k(  109) = (   0.1666667   0.3849002   0.2003420), wk =   0.0027778
        k(  110) = (   0.1666667   0.3849002  -0.2003420), wk =   0.0027778
        k(  111) = (   0.1666667   0.3849002  -0.1001710), wk =   0.0027778
        k(  112) = (   0.1666667   0.4811252   0.0000000), wk =   0.0027778
        k(  113) = (   0.1666667   0.4811252   0.1001710), wk =   0.0027778
        k(  114) = (   0.1666667   0.4811252   0.2003420), wk =   0.0027778
        k(  115) = (   0.1666667   0.4811252  -0.2003420), wk =   0.0027778
        k(  116) = (   0.1666667   0.4811252  -0.1001710), wk =   0.0027778
        k(  117) = (   0.1666667   0.5773503   0.0000000), wk =   0.0027778
        k(  118) = (   0.1666667   0.5773503   0.1001710), wk =   0.0027778
        k(  119) = (   0.1666667   0.5773503   0.2003420), wk =   0.0027778
        k(  120) = (   0.1666667   0.5773503  -0.2003420), wk =   0.0027778
        k(  121) = (   0.1666667   0.5773503  -0.1001710), wk =   0.0027778
        k(  122) = (   0.1666667  -0.4811252   0.0000000), wk =   0.0027778
        k(  123) = (   0.1666667  -0.4811252   0.1001710), wk =   0.0027778
        k(  124) = (   0.1666667  -0.4811252   0.2003420), wk =   0.0027778
        k(  125) = (   0.1666667  -0.4811252  -0.2003420), wk =   0.0027778
        k(  126) = (   0.1666667  -0.4811252  -0.1001710), wk =   0.0027778
        k(  127) = (   0.1666667  -0.3849002   0.0000000), wk =   0.0027778
        k(  128) = (   0.1666667  -0.3849002   0.1001710), wk =   0.0027778
        k(  129) = (   0.1666667  -0.3849002   0.2003420), wk =   0.0027778
        k(  130) = (   0.1666667  -0.3849002  -0.2003420), wk =   0.0027778
        k(  131) = (   0.1666667  -0.3849002  -0.1001710), wk =   0.0027778
        k(  132) = (   0.1666667  -0.2886751   0.0000000), wk =   0.0027778
        k(  133) = (   0.1666667  -0.2886751   0.1001710), wk =   0.0027778
        k(  134) = (   0.1666667  -0.2886751   0.2003420), wk =   0.0027778
        k(  135) = (   0.1666667  -0.2886751  -0.2003420), wk =   0.0027778
        k(  136) = (   0.1666667  -0.2886751  -0.1001710), wk =   0.0027778
        k(  137) = (   0.1666667  -0.1924501   0.0000000), wk =   0.0027778
        k(  138) = (   0.1666667  -0.1924501   0.1001710), wk =   0.0027778
        k(  139) = (   0.1666667  -0.1924501   0.2003420), wk =   0.0027778
        k(  140) = (   0.1666667  -0.1924501  -0.2003420), wk =   0.0027778
        k(  141) = (   0.1666667  -0.1924501  -0.1001710), wk =   0.0027778
        k(  142) = (   0.1666667  -0.0962250   0.0000000), wk =   0.0027778
        k(  143) = (   0.1666667  -0.0962250   0.1001710), wk =   0.0027778
        k(  144) = (   0.1666667  -0.0962250   0.2003420), wk =   0.0027778
        k(  145) = (   0.1666667  -0.0962250  -0.2003420), wk =   0.0027778
        k(  146) = (   0.1666667  -0.0962250  -0.1001710), wk =   0.0027778
        k(  147) = (   0.1666667  -0.0000000   0.0000000), wk =   0.0027778
        k(  148) = (   0.1666667  -0.0000000   0.1001710), wk =   0.0027778
        k(  149) = (   0.1666667  -0.0000000   0.2003420), wk =   0.0027778
        k(  150) = (   0.1666667  -0.0000000  -0.2003420), wk =   0.0027778
        k(  151) = (   0.1666667  -0.0000000  -0.1001710), wk =   0.0027778
        k(  152) = (   0.2500000   0.1443376   0.0000000), wk =   0.0027778
        k(  153) = (   0.2500000   0.1443376   0.1001710), wk =   0.0027778
        k(  154) = (   0.2500000   0.1443376   0.2003420), wk =   0.0027778
        k(  155) = (   0.2500000   0.1443376  -0.2003420), wk =   0.0027778
        k(  156) = (   0.2500000   0.1443376  -0.1001710), wk =   0.0027778
        k(  157) = (   0.2500000   0.2405626   0.0000000), wk =   0.0027778
        k(  158) = (   0.2500000   0.2405626   0.1001710), wk =   0.0027778
        k(  159) = (   0.2500000   0.2405626   0.2003420), wk =   0.0027778
        k(  160) = (   0.2500000   0.2405626  -0.2003420), wk =   0.0027778
        k(  161) = (   0.2500000   0.2405626  -0.1001710), wk =   0.0027778
        k(  162) = (   0.2500000   0.3367877   0.0000000), wk =   0.0027778
        k(  163) = (   0.2500000   0.3367877   0.1001710), wk =   0.0027778
        k(  164) = (   0.2500000   0.3367877   0.2003420), wk =   0.0027778
        k(  165) = (   0.2500000   0.3367877  -0.2003420), wk =   0.0027778
        k(  166) = (   0.2500000   0.3367877  -0.1001710), wk =   0.0027778
        k(  167) = (   0.2500000   0.4330127   0.0000000), wk =   0.0027778
        k(  168) = (   0.2500000   0.4330127   0.1001710), wk =   0.0027778
        k(  169) = (   0.2500000   0.4330127   0.2003420), wk =   0.0027778
        k(  170) = (   0.2500000   0.4330127  -0.2003420), wk =   0.0027778
        k(  171) = (   0.2500000   0.4330127  -0.1001710), wk =   0.0027778
        k(  172) = (   0.2500000   0.5292377   0.0000000), wk =   0.0027778
        k(  173) = (   0.2500000   0.5292377   0.1001710), wk =   0.0027778
        k(  174) = (   0.2500000   0.5292377   0.2003420), wk =   0.0027778
        k(  175) = (   0.2500000   0.5292377  -0.2003420), wk =   0.0027778
        k(  176) = (   0.2500000   0.5292377  -0.1001710), wk =   0.0027778
        k(  177) = (   0.2500000   0.6254628   0.0000000), wk =   0.0027778
        k(  178) = (   0.2500000   0.6254628   0.1001710), wk =   0.0027778
        k(  179) = (   0.2500000   0.6254628   0.2003420), wk =   0.0027778
        k(  180) = (   0.2500000   0.6254628  -0.2003420), wk =   0.0027778
        k(  181) = (   0.2500000   0.6254628  -0.1001710), wk =   0.0027778
        k(  182) = (   0.2500000  -0.4330127   0.0000000), wk =   0.0027778
        k(  183) = (   0.2500000  -0.4330127   0.1001710), wk =   0.0027778
        k(  184) = (   0.2500000  -0.4330127   0.2003420), wk =   0.0027778
        k(  185) = (   0.2500000  -0.4330127  -0.2003420), wk =   0.0027778
        k(  186) = (   0.2500000  -0.4330127  -0.1001710), wk =   0.0027778
        k(  187) = (   0.2500000  -0.3367877   0.0000000), wk =   0.0027778
        k(  188) = (   0.2500000  -0.3367877   0.1001710), wk =   0.0027778
        k(  189) = (   0.2500000  -0.3367877   0.2003420), wk =   0.0027778
        k(  190) = (   0.2500000  -0.3367877  -0.2003420), wk =   0.0027778
        k(  191) = (   0.2500000  -0.3367877  -0.1001710), wk =   0.0027778
        k(  192) = (   0.2500000  -0.2405626   0.0000000), wk =   0.0027778
        k(  193) = (   0.2500000  -0.2405626   0.1001710), wk =   0.0027778
        k(  194) = (   0.2500000  -0.2405626   0.2003420), wk =   0.0027778
        k(  195) = (   0.2500000  -0.2405626  -0.2003420), wk =   0.0027778
        k(  196) = (   0.2500000  -0.2405626  -0.1001710), wk =   0.0027778
        k(  197) = (   0.2500000  -0.1443376   0.0000000), wk =   0.0027778
        k(  198) = (   0.2500000  -0.1443376   0.1001710), wk =   0.0027778
        k(  199) = (   0.2500000  -0.1443376   0.2003420), wk =   0.0027778
        k(  200) = (   0.2500000  -0.1443376  -0.2003420), wk =   0.0027778
        k(  201) = (   0.2500000  -0.1443376  -0.1001710), wk =   0.0027778
        k(  202) = (   0.2500000  -0.0481125   0.0000000), wk =   0.0027778
        k(  203) = (   0.2500000  -0.0481125   0.1001710), wk =   0.0027778
        k(  204) = (   0.2500000  -0.0481125   0.2003420), wk =   0.0027778
        k(  205) = (   0.2500000  -0.0481125  -0.2003420), wk =   0.0027778
        k(  206) = (   0.2500000  -0.0481125  -0.1001710), wk =   0.0027778
        k(  207) = (   0.2500000   0.0481125   0.0000000), wk =   0.0027778
        k(  208) = (   0.2500000   0.0481125   0.1001710), wk =   0.0027778
        k(  209) = (   0.2500000   0.0481125   0.2003420), wk =   0.0027778
        k(  210) = (   0.2500000   0.0481125  -0.2003420), wk =   0.0027778
        k(  211) = (   0.2500000   0.0481125  -0.1001710), wk =   0.0027778
        k(  212) = (   0.3333333   0.1924501   0.0000000), wk =   0.0027778
        k(  213) = (   0.3333333   0.1924501   0.1001710), wk =   0.0027778
        k(  214) = (   0.3333333   0.1924501   0.2003420), wk =   0.0027778
        k(  215) = (   0.3333333   0.1924501  -0.2003420), wk =   0.0027778
        k(  216) = (   0.3333333   0.1924501  -0.1001710), wk =   0.0027778
        k(  217) = (   0.3333333   0.2886751   0.0000000), wk =   0.0027778
        k(  218) = (   0.3333333   0.2886751   0.1001710), wk =   0.0027778
        k(  219) = (   0.3333333   0.2886751   0.2003420), wk =   0.0027778
        k(  220) = (   0.3333333   0.2886751  -0.2003420), wk =   0.0027778
        k(  221) = (   0.3333333   0.2886751  -0.1001710), wk =   0.0027778
        k(  222) = (   0.3333333   0.3849002   0.0000000), wk =   0.0027778
        k(  223) = (   0.3333333   0.3849002   0.1001710), wk =   0.0027778
        k(  224) = (   0.3333333   0.3849002   0.2003420), wk =   0.0027778
        k(  225) = (   0.3333333   0.3849002  -0.2003420), wk =   0.0027778
        k(  226) = (   0.3333333   0.3849002  -0.1001710), wk =   0.0027778
        k(  227) = (   0.3333333   0.4811252   0.0000000), wk =   0.0027778
        k(  228) = (   0.3333333   0.4811252   0.1001710), wk =   0.0027778
        k(  229) = (   0.3333333   0.4811252   0.2003420), wk =   0.0027778
        k(  230) = (   0.3333333   0.4811252  -0.2003420), wk =   0.0027778
        k(  231) = (   0.3333333   0.4811252  -0.1001710), wk =   0.0027778
        k(  232) = (   0.3333333   0.5773503   0.0000000), wk =   0.0027778
        k(  233) = (   0.3333333   0.5773503   0.1001710), wk =   0.0027778
        k(  234) = (   0.3333333   0.5773503   0.2003420), wk =   0.0027778
        k(  235) = (   0.3333333   0.5773503  -0.2003420), wk =   0.0027778
        k(  236) = (   0.3333333   0.5773503  -0.1001710), wk =   0.0027778
        k(  237) = (   0.3333333   0.6735753   0.0000000), wk =   0.0027778
        k(  238) = (   0.3333333   0.6735753   0.1001710), wk =   0.0027778
        k(  239) = (   0.3333333   0.6735753   0.2003420), wk =   0.0027778
        k(  240) = (   0.3333333   0.6735753  -0.2003420), wk =   0.0027778
        k(  241) = (   0.3333333   0.6735753  -0.1001710), wk =   0.0027778
        k(  242) = (   0.3333333  -0.3849002   0.0000000), wk =   0.0027778
        k(  243) = (   0.3333333  -0.3849002   0.1001710), wk =   0.0027778
        k(  244) = (   0.3333333  -0.3849002   0.2003420), wk =   0.0027778
        k(  245) = (   0.3333333  -0.3849002  -0.2003420), wk =   0.0027778
        k(  246) = (   0.3333333  -0.3849002  -0.1001710), wk =   0.0027778
        k(  247) = (   0.3333333  -0.2886751   0.0000000), wk =   0.0027778
        k(  248) = (   0.3333333  -0.2886751   0.1001710), wk =   0.0027778
        k(  249) = (   0.3333333  -0.2886751   0.2003420), wk =   0.0027778
        k(  250) = (   0.3333333  -0.2886751  -0.2003420), wk =   0.0027778
        k(  251) = (   0.3333333  -0.2886751  -0.1001710), wk =   0.0027778
        k(  252) = (   0.3333333  -0.1924501   0.0000000), wk =   0.0027778
        k(  253) = (   0.3333333  -0.1924501   0.1001710), wk =   0.0027778
        k(  254) = (   0.3333333  -0.1924501   0.2003420), wk =   0.0027778
        k(  255) = (   0.3333333  -0.1924501  -0.2003420), wk =   0.0027778
        k(  256) = (   0.3333333  -0.1924501  -0.1001710), wk =   0.0027778
        k(  257) = (   0.3333333  -0.0962250   0.0000000), wk =   0.0027778
        k(  258) = (   0.3333333  -0.0962250   0.1001710), wk =   0.0027778
        k(  259) = (   0.3333333  -0.0962250   0.2003420), wk =   0.0027778
        k(  260) = (   0.3333333  -0.0962250  -0.2003420), wk =   0.0027778
        k(  261) = (   0.3333333  -0.0962250  -0.1001710), wk =   0.0027778
        k(  262) = (   0.3333333  -0.0000000   0.0000000), wk =   0.0027778
        k(  263) = (   0.3333333  -0.0000000   0.1001710), wk =   0.0027778
        k(  264) = (   0.3333333  -0.0000000   0.2003420), wk =   0.0027778
        k(  265) = (   0.3333333  -0.0000000  -0.2003420), wk =   0.0027778
        k(  266) = (   0.3333333  -0.0000000  -0.1001710), wk =   0.0027778
        k(  267) = (   0.3333333   0.0962250   0.0000000), wk =   0.0027778
        k(  268) = (   0.3333333   0.0962250   0.1001710), wk =   0.0027778
        k(  269) = (   0.3333333   0.0962250   0.2003420), wk =   0.0027778
        k(  270) = (   0.3333333   0.0962250  -0.2003420), wk =   0.0027778
        k(  271) = (   0.3333333   0.0962250  -0.1001710), wk =   0.0027778
        k(  272) = (   0.4166667   0.2405626   0.0000000), wk =   0.0027778
        k(  273) = (   0.4166667   0.2405626   0.1001710), wk =   0.0027778
        k(  274) = (   0.4166667   0.2405626   0.2003420), wk =   0.0027778
        k(  275) = (   0.4166667   0.2405626  -0.2003420), wk =   0.0027778
        k(  276) = (   0.4166667   0.2405626  -0.1001710), wk =   0.0027778
        k(  277) = (   0.4166667   0.3367877   0.0000000), wk =   0.0027778
        k(  278) = (   0.4166667   0.3367877   0.1001710), wk =   0.0027778
        k(  279) = (   0.4166667   0.3367877   0.2003420), wk =   0.0027778
        k(  280) = (   0.4166667   0.3367877  -0.2003420), wk =   0.0027778
        k(  281) = (   0.4166667   0.3367877  -0.1001710), wk =   0.0027778
        k(  282) = (   0.4166667   0.4330127   0.0000000), wk =   0.0027778
        k(  283) = (   0.4166667   0.4330127   0.1001710), wk =   0.0027778
        k(  284) = (   0.4166667   0.4330127   0.2003420), wk =   0.0027778
        k(  285) = (   0.4166667   0.4330127  -0.2003420), wk =   0.0027778
        k(  286) = (   0.4166667   0.4330127  -0.1001710), wk =   0.0027778
        k(  287) = (   0.4166667   0.5292377   0.0000000), wk =   0.0027778
        k(  288) = (   0.4166667   0.5292377   0.1001710), wk =   0.0027778
        k(  289) = (   0.4166667   0.5292377   0.2003420), wk =   0.0027778
        k(  290) = (   0.4166667   0.5292377  -0.2003420), wk =   0.0027778
        k(  291) = (   0.4166667   0.5292377  -0.1001710), wk =   0.0027778
        k(  292) = (   0.4166667   0.6254628   0.0000000), wk =   0.0027778
        k(  293) = (   0.4166667   0.6254628   0.1001710), wk =   0.0027778
        k(  294) = (   0.4166667   0.6254628   0.2003420), wk =   0.0027778
        k(  295) = (   0.4166667   0.6254628  -0.2003420), wk =   0.0027778
        k(  296) = (   0.4166667   0.6254628  -0.1001710), wk =   0.0027778
        k(  297) = (   0.4166667   0.7216878   0.0000000), wk =   0.0027778
        k(  298) = (   0.4166667   0.7216878   0.1001710), wk =   0.0027778
        k(  299) = (   0.4166667   0.7216878   0.2003420), wk =   0.0027778
        k(  300) = (   0.4166667   0.7216878  -0.2003420), wk =   0.0027778
        k(  301) = (   0.4166667   0.7216878  -0.1001710), wk =   0.0027778
        k(  302) = (   0.4166667  -0.3367877   0.0000000), wk =   0.0027778
        k(  303) = (   0.4166667  -0.3367877   0.1001710), wk =   0.0027778
        k(  304) = (   0.4166667  -0.3367877   0.2003420), wk =   0.0027778
        k(  305) = (   0.4166667  -0.3367877  -0.2003420), wk =   0.0027778
        k(  306) = (   0.4166667  -0.3367877  -0.1001710), wk =   0.0027778
        k(  307) = (   0.4166667  -0.2405626   0.0000000), wk =   0.0027778
        k(  308) = (   0.4166667  -0.2405626   0.1001710), wk =   0.0027778
        k(  309) = (   0.4166667  -0.2405626   0.2003420), wk =   0.0027778
        k(  310) = (   0.4166667  -0.2405626  -0.2003420), wk =   0.0027778
        k(  311) = (   0.4166667  -0.2405626  -0.1001710), wk =   0.0027778
        k(  312) = (   0.4166667  -0.1443376   0.0000000), wk =   0.0027778
        k(  313) = (   0.4166667  -0.1443376   0.1001710), wk =   0.0027778
        k(  314) = (   0.4166667  -0.1443376   0.2003420), wk =   0.0027778
        k(  315) = (   0.4166667  -0.1443376  -0.2003420), wk =   0.0027778
        k(  316) = (   0.4166667  -0.1443376  -0.1001710), wk =   0.0027778
        k(  317) = (   0.4166667  -0.0481125   0.0000000), wk =   0.0027778
        k(  318) = (   0.4166667  -0.0481125   0.1001710), wk =   0.0027778
        k(  319) = (   0.4166667  -0.0481125   0.2003420), wk =   0.0027778
        k(  320) = (   0.4166667  -0.0481125  -0.2003420), wk =   0.0027778
        k(  321) = (   0.4166667  -0.0481125  -0.1001710), wk =   0.0027778
        k(  322) = (   0.4166667   0.0481125   0.0000000), wk =   0.0027778
        k(  323) = (   0.4166667   0.0481125   0.1001710), wk =   0.0027778
        k(  324) = (   0.4166667   0.0481125   0.2003420), wk =   0.0027778
        k(  325) = (   0.4166667   0.0481125  -0.2003420), wk =   0.0027778
        k(  326) = (   0.4166667   0.0481125  -0.1001710), wk =   0.0027778
        k(  327) = (   0.4166667   0.1443376   0.0000000), wk =   0.0027778
        k(  328) = (   0.4166667   0.1443376   0.1001710), wk =   0.0027778
        k(  329) = (   0.4166667   0.1443376   0.2003420), wk =   0.0027778
        k(  330) = (   0.4166667   0.1443376  -0.2003420), wk =   0.0027778
        k(  331) = (   0.4166667   0.1443376  -0.1001710), wk =   0.0027778
        k(  332) = (  -0.5000000  -0.2886751   0.0000000), wk =   0.0013889
        k(  333) = (  -0.5000000  -0.2886751   0.1001710), wk =   0.0027778
        k(  334) = (  -0.5000000  -0.2886751   0.2003420), wk =   0.0027778
        k(  335) = (  -0.5000000  -0.1924501   0.0000000), wk =   0.0027778
        k(  336) = (  -0.5000000  -0.1924501   0.1001710), wk =   0.0027778
        k(  337) = (  -0.5000000  -0.1924501   0.2003420), wk =   0.0027778
        k(  338) = (  -0.5000000  -0.1924501  -0.2003420), wk =   0.0027778
        k(  339) = (  -0.5000000  -0.1924501  -0.1001710), wk =   0.0027778
        k(  340) = (  -0.5000000  -0.0962250   0.0000000), wk =   0.0027778
        k(  341) = (  -0.5000000  -0.0962250   0.1001710), wk =   0.0027778
        k(  342) = (  -0.5000000  -0.0962250   0.2003420), wk =   0.0027778
        k(  343) = (  -0.5000000  -0.0962250  -0.2003420), wk =   0.0027778
        k(  344) = (  -0.5000000  -0.0962250  -0.1001710), wk =   0.0027778
        k(  345) = (  -0.5000000   0.0000000   0.0000000), wk =   0.0027778
        k(  346) = (  -0.5000000   0.0000000   0.1001710), wk =   0.0027778
        k(  347) = (  -0.5000000   0.0000000   0.2003420), wk =   0.0027778
        k(  348) = (  -0.5000000   0.0000000  -0.2003420), wk =   0.0027778
        k(  349) = (  -0.5000000   0.0000000  -0.1001710), wk =   0.0027778
        k(  350) = (  -0.5000000   0.0962250   0.0000000), wk =   0.0027778
        k(  351) = (  -0.5000000   0.0962250   0.1001710), wk =   0.0027778
        k(  352) = (  -0.5000000   0.0962250   0.2003420), wk =   0.0027778
        k(  353) = (  -0.5000000   0.0962250  -0.2003420), wk =   0.0027778
        k(  354) = (  -0.5000000   0.0962250  -0.1001710), wk =   0.0027778
        k(  355) = (  -0.5000000   0.1924501   0.0000000), wk =   0.0027778
        k(  356) = (  -0.5000000   0.1924501   0.1001710), wk =   0.0027778
        k(  357) = (  -0.5000000   0.1924501   0.2003420), wk =   0.0027778
        k(  358) = (  -0.5000000   0.1924501  -0.2003420), wk =   0.0027778
        k(  359) = (  -0.5000000   0.1924501  -0.1001710), wk =   0.0027778
        k(  360) = (  -0.5000000  -0.8660254   0.0000000), wk =   0.0013889
        k(  361) = (  -0.5000000  -0.8660254   0.1001710), wk =   0.0027778
        k(  362) = (  -0.5000000  -0.8660254   0.2003420), wk =   0.0027778

                       cryst. coord.
        k(    1) = (   0.0000000   0.0000000   0.0000000), wk =   0.0013889
        k(    2) = (   0.0000000   0.0000000   0.2000000), wk =   0.0027778
        k(    3) = (   0.0000000   0.0000000   0.4000000), wk =   0.0027778
        k(    4) = (   0.0000000   0.0833333   0.0000000), wk =   0.0027778
        k(    5) = (   0.0000000   0.0833333   0.2000000), wk =   0.0027778
        k(    6) = (   0.0000000   0.0833333   0.4000000), wk =   0.0027778
        k(    7) = (   0.0000000   0.0833333  -0.4000000), wk =   0.0027778
        k(    8) = (   0.0000000   0.0833333  -0.2000000), wk =   0.0027778
        k(    9) = (   0.0000000   0.1666667   0.0000000), wk =   0.0027778
        k(   10) = (   0.0000000   0.1666667   0.2000000), wk =   0.0027778
        k(   11) = (   0.0000000   0.1666667   0.4000000), wk =   0.0027778
        k(   12) = (   0.0000000   0.1666667  -0.4000000), wk =   0.0027778
        k(   13) = (   0.0000000   0.1666667  -0.2000000), wk =   0.0027778
        k(   14) = (   0.0000000   0.2500000   0.0000000), wk =   0.0027778
        k(   15) = (   0.0000000   0.2500000   0.2000000), wk =   0.0027778
        k(   16) = (   0.0000000   0.2500000   0.4000000), wk =   0.0027778
        k(   17) = (   0.0000000   0.2500000  -0.4000000), wk =   0.0027778
        k(   18) = (   0.0000000   0.2500000  -0.2000000), wk =   0.0027778
        k(   19) = (   0.0000000   0.3333333   0.0000000), wk =   0.0027778
        k(   20) = (   0.0000000   0.3333333   0.2000000), wk =   0.0027778
        k(   21) = (   0.0000000   0.3333333   0.4000000), wk =   0.0027778
        k(   22) = (   0.0000000   0.3333333  -0.4000000), wk =   0.0027778
        k(   23) = (   0.0000000   0.3333333  -0.2000000), wk =   0.0027778
        k(   24) = (   0.0000000   0.4166667   0.0000000), wk =   0.0027778
        k(   25) = (   0.0000000   0.4166667   0.2000000), wk =   0.0027778
        k(   26) = (   0.0000000   0.4166667   0.4000000), wk =   0.0027778
        k(   27) = (   0.0000000   0.4166667  -0.4000000), wk =   0.0027778
        k(   28) = (   0.0000000   0.4166667  -0.2000000), wk =   0.0027778
        k(   29) = (   0.0000000  -0.5000000   0.0000000), wk =   0.0013889
        k(   30) = (   0.0000000  -0.5000000   0.2000000), wk =   0.0027778
        k(   31) = (   0.0000000  -0.5000000   0.4000000), wk =   0.0027778
        k(   32) = (   0.0833333  -0.0000000   0.0000000), wk =   0.0027778
        k(   33) = (   0.0833333  -0.0000000   0.2000000), wk =   0.0027778
        k(   34) = (   0.0833333  -0.0000000   0.4000000), wk =   0.0027778
        k(   35) = (   0.0833333  -0.0000000  -0.4000000), wk =   0.0027778
        k(   36) = (   0.0833333  -0.0000000  -0.2000000), wk =   0.0027778
        k(   37) = (   0.0833333   0.0833333   0.0000000), wk =   0.0027778
        k(   38) = (   0.0833333   0.0833333   0.2000000), wk =   0.0027778
        k(   39) = (   0.0833333   0.0833333   0.4000000), wk =   0.0027778
        k(   40) = (   0.0833333   0.0833333  -0.4000000), wk =   0.0027778
        k(   41) = (   0.0833333   0.0833333  -0.2000000), wk =   0.0027778
        k(   42) = (   0.0833333   0.1666667   0.0000000), wk =   0.0027778
        k(   43) = (   0.0833333   0.1666667   0.2000000), wk =   0.0027778
        k(   44) = (   0.0833333   0.1666667   0.4000000), wk =   0.0027778
        k(   45) = (   0.0833333   0.1666667  -0.4000000), wk =   0.0027778
        k(   46) = (   0.0833333   0.1666667  -0.2000000), wk =   0.0027778
        k(   47) = (   0.0833333   0.2500000   0.0000000), wk =   0.0027778
        k(   48) = (   0.0833333   0.2500000   0.2000000), wk =   0.0027778
        k(   49) = (   0.0833333   0.2500000   0.4000000), wk =   0.0027778
        k(   50) = (   0.0833333   0.2500000  -0.4000000), wk =   0.0027778
        k(   51) = (   0.0833333   0.2500000  -0.2000000), wk =   0.0027778
        k(   52) = (   0.0833333   0.3333333   0.0000000), wk =   0.0027778
        k(   53) = (   0.0833333   0.3333333   0.2000000), wk =   0.0027778
        k(   54) = (   0.0833333   0.3333333   0.4000000), wk =   0.0027778
        k(   55) = (   0.0833333   0.3333333  -0.4000000), wk =   0.0027778
        k(   56) = (   0.0833333   0.3333333  -0.2000000), wk =   0.0027778
        k(   57) = (   0.0833333   0.4166667   0.0000000), wk =   0.0027778
        k(   58) = (   0.0833333   0.4166667   0.2000000), wk =   0.0027778
        k(   59) = (   0.0833333   0.4166667   0.4000000), wk =   0.0027778
        k(   60) = (   0.0833333   0.4166667  -0.4000000), wk =   0.0027778
        k(   61) = (   0.0833333   0.4166667  -0.2000000), wk =   0.0027778
        k(   62) = (   0.0833333  -0.5000000   0.0000000), wk =   0.0027778
        k(   63) = (   0.0833333  -0.5000000   0.2000000), wk =   0.0027778
        k(   64) = (   0.0833333  -0.5000000   0.4000000), wk =   0.0027778
        k(   65) = (   0.0833333  -0.5000000  -0.4000000), wk =   0.0027778
        k(   66) = (   0.0833333  -0.5000000  -0.2000000), wk =   0.0027778
        k(   67) = (   0.0833333  -0.4166667   0.0000000), wk =   0.0027778
        k(   68) = (   0.0833333  -0.4166667   0.2000000), wk =   0.0027778
        k(   69) = (   0.0833333  -0.4166667   0.4000000), wk =   0.0027778
        k(   70) = (   0.0833333  -0.4166667  -0.4000000), wk =   0.0027778
        k(   71) = (   0.0833333  -0.4166667  -0.2000000), wk =   0.0027778
        k(   72) = (   0.0833333  -0.3333333   0.0000000), wk =   0.0027778
        k(   73) = (   0.0833333  -0.3333333   0.2000000), wk =   0.0027778
        k(   74) = (   0.0833333  -0.3333333   0.4000000), wk =   0.0027778
        k(   75) = (   0.0833333  -0.3333333  -0.4000000), wk =   0.0027778
        k(   76) = (   0.0833333  -0.3333333  -0.2000000), wk =   0.0027778
        k(   77) = (   0.0833333  -0.2500000   0.0000000), wk =   0.0027778
        k(   78) = (   0.0833333  -0.2500000   0.2000000), wk =   0.0027778
        k(   79) = (   0.0833333  -0.2500000   0.4000000), wk =   0.0027778
        k(   80) = (   0.0833333  -0.2500000  -0.4000000), wk =   0.0027778
        k(   81) = (   0.0833333  -0.2500000  -0.2000000), wk =   0.0027778
        k(   82) = (   0.0833333  -0.1666667   0.0000000), wk =   0.0027778
        k(   83) = (   0.0833333  -0.1666667   0.2000000), wk =   0.0027778
        k(   84) = (   0.0833333  -0.1666667   0.4000000), wk =   0.0027778
        k(   85) = (   0.0833333  -0.1666667  -0.4000000), wk =   0.0027778
        k(   86) = (   0.0833333  -0.1666667  -0.2000000), wk =   0.0027778
        k(   87) = (   0.0833333  -0.0833333   0.0000000), wk =   0.0027778
        k(   88) = (   0.0833333  -0.0833333   0.2000000), wk =   0.0027778
        k(   89) = (   0.0833333  -0.0833333   0.4000000), wk =   0.0027778
        k(   90) = (   0.0833333  -0.0833333  -0.4000000), wk =   0.0027778
        k(   91) = (   0.0833333  -0.0833333  -0.2000000), wk =   0.0027778
        k(   92) = (   0.1666667  -0.0000000   0.0000000), wk =   0.0027778
        k(   93) = (   0.1666667  -0.0000000   0.2000000), wk =   0.0027778
        k(   94) = (   0.1666667  -0.0000000   0.4000000), wk =   0.0027778
        k(   95) = (   0.1666667  -0.0000000  -0.4000000), wk =   0.0027778
        k(   96) = (   0.1666667  -0.0000000  -0.2000000), wk =   0.0027778
        k(   97) = (   0.1666667   0.0833333   0.0000000), wk =   0.0027778
        k(   98) = (   0.1666667   0.0833333   0.2000000), wk =   0.0027778
        k(   99) = (   0.1666667   0.0833333   0.4000000), wk =   0.0027778
        k(  100) = (   0.1666667   0.0833333  -0.4000000), wk =   0.0027778
        k(  101) = (   0.1666667   0.0833333  -0.2000000), wk =   0.0027778
        k(  102) = (   0.1666667   0.1666667   0.0000000), wk =   0.0027778
        k(  103) = (   0.1666667   0.1666667   0.2000000), wk =   0.0027778
        k(  104) = (   0.1666667   0.1666667   0.4000000), wk =   0.0027778
        k(  105) = (   0.1666667   0.1666667  -0.4000000), wk =   0.0027778
        k(  106) = (   0.1666667   0.1666667  -0.2000000), wk =   0.0027778
        k(  107) = (   0.1666667   0.2500000   0.0000000), wk =   0.0027778
        k(  108) = (   0.1666667   0.2500000   0.2000000), wk =   0.0027778
        k(  109) = (   0.1666667   0.2500000   0.4000000), wk =   0.0027778
        k(  110) = (   0.1666667   0.2500000  -0.4000000), wk =   0.0027778
        k(  111) = (   0.1666667   0.2500000  -0.2000000), wk =   0.0027778
        k(  112) = (   0.1666667   0.3333333   0.0000000), wk =   0.0027778
        k(  113) = (   0.1666667   0.3333333   0.2000000), wk =   0.0027778
        k(  114) = (   0.1666667   0.3333333   0.4000000), wk =   0.0027778
        k(  115) = (   0.1666667   0.3333333  -0.4000000), wk =   0.0027778
        k(  116) = (   0.1666667   0.3333333  -0.2000000), wk =   0.0027778
        k(  117) = (   0.1666667   0.4166667   0.0000000), wk =   0.0027778
        k(  118) = (   0.1666667   0.4166667   0.2000000), wk =   0.0027778
        k(  119) = (   0.1666667   0.4166667   0.4000000), wk =   0.0027778
        k(  120) = (   0.1666667   0.4166667  -0.4000000), wk =   0.0027778
        k(  121) = (   0.1666667   0.4166667  -0.2000000), wk =   0.0027778
        k(  122) = (   0.1666667  -0.5000000   0.0000000), wk =   0.0027778
        k(  123) = (   0.1666667  -0.5000000   0.2000000), wk =   0.0027778
        k(  124) = (   0.1666667  -0.5000000   0.4000000), wk =   0.0027778
        k(  125) = (   0.1666667  -0.5000000  -0.4000000), wk =   0.0027778
        k(  126) = (   0.1666667  -0.5000000  -0.2000000), wk =   0.0027778
        k(  127) = (   0.1666667  -0.4166667   0.0000000), wk =   0.0027778
        k(  128) = (   0.1666667  -0.4166667   0.2000000), wk =   0.0027778
        k(  129) = (   0.1666667  -0.4166667   0.4000000), wk =   0.0027778
        k(  130) = (   0.1666667  -0.4166667  -0.4000000), wk =   0.0027778
        k(  131) = (   0.1666667  -0.4166667  -0.2000000), wk =   0.0027778
        k(  132) = (   0.1666667  -0.3333333   0.0000000), wk =   0.0027778
        k(  133) = (   0.1666667  -0.3333333   0.2000000), wk =   0.0027778
        k(  134) = (   0.1666667  -0.3333333   0.4000000), wk =   0.0027778
        k(  135) = (   0.1666667  -0.3333333  -0.4000000), wk =   0.0027778
        k(  136) = (   0.1666667  -0.3333333  -0.2000000), wk =   0.0027778
        k(  137) = (   0.1666667  -0.2500000   0.0000000), wk =   0.0027778
        k(  138) = (   0.1666667  -0.2500000   0.2000000), wk =   0.0027778
        k(  139) = (   0.1666667  -0.2500000   0.4000000), wk =   0.0027778
        k(  140) = (   0.1666667  -0.2500000  -0.4000000), wk =   0.0027778
        k(  141) = (   0.1666667  -0.2500000  -0.2000000), wk =   0.0027778
        k(  142) = (   0.1666667  -0.1666667   0.0000000), wk =   0.0027778
        k(  143) = (   0.1666667  -0.1666667   0.2000000), wk =   0.0027778
        k(  144) = (   0.1666667  -0.1666667   0.4000000), wk =   0.0027778
        k(  145) = (   0.1666667  -0.1666667  -0.4000000), wk =   0.0027778
        k(  146) = (   0.1666667  -0.1666667  -0.2000000), wk =   0.0027778
        k(  147) = (   0.1666667  -0.0833333   0.0000000), wk =   0.0027778
        k(  148) = (   0.1666667  -0.0833333   0.2000000), wk =   0.0027778
        k(  149) = (   0.1666667  -0.0833333   0.4000000), wk =   0.0027778
        k(  150) = (   0.1666667  -0.0833333  -0.4000000), wk =   0.0027778
        k(  151) = (   0.1666667  -0.0833333  -0.2000000), wk =   0.0027778
        k(  152) = (   0.2500000   0.0000000   0.0000000), wk =   0.0027778
        k(  153) = (   0.2500000   0.0000000   0.2000000), wk =   0.0027778
        k(  154) = (   0.2500000   0.0000000   0.4000000), wk =   0.0027778
        k(  155) = (   0.2500000   0.0000000  -0.4000000), wk =   0.0027778
        k(  156) = (   0.2500000   0.0000000  -0.2000000), wk =   0.0027778
        k(  157) = (   0.2500000   0.0833333   0.0000000), wk =   0.0027778
        k(  158) = (   0.2500000   0.0833333   0.2000000), wk =   0.0027778
        k(  159) = (   0.2500000   0.0833333   0.4000000), wk =   0.0027778
        k(  160) = (   0.2500000   0.0833333  -0.4000000), wk =   0.0027778
        k(  161) = (   0.2500000   0.0833333  -0.2000000), wk =   0.0027778
        k(  162) = (   0.2500000   0.1666667   0.0000000), wk =   0.0027778
        k(  163) = (   0.2500000   0.1666667   0.2000000), wk =   0.0027778
        k(  164) = (   0.2500000   0.1666667   0.4000000), wk =   0.0027778
        k(  165) = (   0.2500000   0.1666667  -0.4000000), wk =   0.0027778
        k(  166) = (   0.2500000   0.1666667  -0.2000000), wk =   0.0027778
        k(  167) = (   0.2500000   0.2500000   0.0000000), wk =   0.0027778
        k(  168) = (   0.2500000   0.2500000   0.2000000), wk =   0.0027778
        k(  169) = (   0.2500000   0.2500000   0.4000000), wk =   0.0027778
        k(  170) = (   0.2500000   0.2500000  -0.4000000), wk =   0.0027778
        k(  171) = (   0.2500000   0.2500000  -0.2000000), wk =   0.0027778
        k(  172) = (   0.2500000   0.3333333   0.0000000), wk =   0.0027778
        k(  173) = (   0.2500000   0.3333333   0.2000000), wk =   0.0027778
        k(  174) = (   0.2500000   0.3333333   0.4000000), wk =   0.0027778
        k(  175) = (   0.2500000   0.3333333  -0.4000000), wk =   0.0027778
        k(  176) = (   0.2500000   0.3333333  -0.2000000), wk =   0.0027778
        k(  177) = (   0.2500000   0.4166667   0.0000000), wk =   0.0027778
        k(  178) = (   0.2500000   0.4166667   0.2000000), wk =   0.0027778
        k(  179) = (   0.2500000   0.4166667   0.4000000), wk =   0.0027778
        k(  180) = (   0.2500000   0.4166667  -0.4000000), wk =   0.0027778
        k(  181) = (   0.2500000   0.4166667  -0.2000000), wk =   0.0027778
        k(  182) = (   0.2500000  -0.5000000   0.0000000), wk =   0.0027778
        k(  183) = (   0.2500000  -0.5000000   0.2000000), wk =   0.0027778
        k(  184) = (   0.2500000  -0.5000000   0.4000000), wk =   0.0027778
        k(  185) = (   0.2500000  -0.5000000  -0.4000000), wk =   0.0027778
        k(  186) = (   0.2500000  -0.5000000  -0.2000000), wk =   0.0027778
        k(  187) = (   0.2500000  -0.4166667   0.0000000), wk =   0.0027778
        k(  188) = (   0.2500000  -0.4166667   0.2000000), wk =   0.0027778
        k(  189) = (   0.2500000  -0.4166667   0.4000000), wk =   0.0027778
        k(  190) = (   0.2500000  -0.4166667  -0.4000000), wk =   0.0027778
        k(  191) = (   0.2500000  -0.4166667  -0.2000000), wk =   0.0027778
        k(  192) = (   0.2500000  -0.3333333   0.0000000), wk =   0.0027778
        k(  193) = (   0.2500000  -0.3333333   0.2000000), wk =   0.0027778
        k(  194) = (   0.2500000  -0.3333333   0.4000000), wk =   0.0027778
        k(  195) = (   0.2500000  -0.3333333  -0.4000000), wk =   0.0027778
        k(  196) = (   0.2500000  -0.3333333  -0.2000000), wk =   0.0027778
        k(  197) = (   0.2500000  -0.2500000   0.0000000), wk =   0.0027778
        k(  198) = (   0.2500000  -0.2500000   0.2000000), wk =   0.0027778
        k(  199) = (   0.2500000  -0.2500000   0.4000000), wk =   0.0027778
        k(  200) = (   0.2500000  -0.2500000  -0.4000000), wk =   0.0027778
        k(  201) = (   0.2500000  -0.2500000  -0.2000000), wk =   0.0027778
        k(  202) = (   0.2500000  -0.1666667   0.0000000), wk =   0.0027778
        k(  203) = (   0.2500000  -0.1666667   0.2000000), wk =   0.0027778
        k(  204) = (   0.2500000  -0.1666667   0.4000000), wk =   0.0027778
        k(  205) = (   0.2500000  -0.1666667  -0.4000000), wk =   0.0027778
        k(  206) = (   0.2500000  -0.1666667  -0.2000000), wk =   0.0027778
        k(  207) = (   0.2500000  -0.0833333   0.0000000), wk =   0.0027778
        k(  208) = (   0.2500000  -0.0833333   0.2000000), wk =   0.0027778
        k(  209) = (   0.2500000  -0.0833333   0.4000000), wk =   0.0027778
        k(  210) = (   0.2500000  -0.0833333  -0.4000000), wk =   0.0027778
        k(  211) = (   0.2500000  -0.0833333  -0.2000000), wk =   0.0027778
        k(  212) = (   0.3333333  -0.0000000   0.0000000), wk =   0.0027778
        k(  213) = (   0.3333333  -0.0000000   0.2000000), wk =   0.0027778
        k(  214) = (   0.3333333  -0.0000000   0.4000000), wk =   0.0027778
        k(  215) = (   0.3333333  -0.0000000  -0.4000000), wk =   0.0027778
        k(  216) = (   0.3333333  -0.0000000  -0.2000000), wk =   0.0027778
        k(  217) = (   0.3333333   0.0833333   0.0000000), wk =   0.0027778
        k(  218) = (   0.3333333   0.0833333   0.2000000), wk =   0.0027778
        k(  219) = (   0.3333333   0.0833333   0.4000000), wk =   0.0027778
        k(  220) = (   0.3333333   0.0833333  -0.4000000), wk =   0.0027778
        k(  221) = (   0.3333333   0.0833333  -0.2000000), wk =   0.0027778
        k(  222) = (   0.3333333   0.1666667   0.0000000), wk =   0.0027778
        k(  223) = (   0.3333333   0.1666667   0.2000000), wk =   0.0027778
        k(  224) = (   0.3333333   0.1666667   0.4000000), wk =   0.0027778
        k(  225) = (   0.3333333   0.1666667  -0.4000000), wk =   0.0027778
        k(  226) = (   0.3333333   0.1666667  -0.2000000), wk =   0.0027778
        k(  227) = (   0.3333333   0.2500000   0.0000000), wk =   0.0027778
        k(  228) = (   0.3333333   0.2500000   0.2000000), wk =   0.0027778
        k(  229) = (   0.3333333   0.2500000   0.4000000), wk =   0.0027778
        k(  230) = (   0.3333333   0.2500000  -0.4000000), wk =   0.0027778
        k(  231) = (   0.3333333   0.2500000  -0.2000000), wk =   0.0027778
        k(  232) = (   0.3333333   0.3333333   0.0000000), wk =   0.0027778
        k(  233) = (   0.3333333   0.3333333   0.2000000), wk =   0.0027778
        k(  234) = (   0.3333333   0.3333333   0.4000000), wk =   0.0027778
        k(  235) = (   0.3333333   0.3333333  -0.4000000), wk =   0.0027778
        k(  236) = (   0.3333333   0.3333333  -0.2000000), wk =   0.0027778
        k(  237) = (   0.3333333   0.4166667   0.0000000), wk =   0.0027778
        k(  238) = (   0.3333333   0.4166667   0.2000000), wk =   0.0027778
        k(  239) = (   0.3333333   0.4166667   0.4000000), wk =   0.0027778
        k(  240) = (   0.3333333   0.4166667  -0.4000000), wk =   0.0027778
        k(  241) = (   0.3333333   0.4166667  -0.2000000), wk =   0.0027778
        k(  242) = (   0.3333333  -0.5000000   0.0000000), wk =   0.0027778
        k(  243) = (   0.3333333  -0.5000000   0.2000000), wk =   0.0027778
        k(  244) = (   0.3333333  -0.5000000   0.4000000), wk =   0.0027778
        k(  245) = (   0.3333333  -0.5000000  -0.4000000), wk =   0.0027778
        k(  246) = (   0.3333333  -0.5000000  -0.2000000), wk =   0.0027778
        k(  247) = (   0.3333333  -0.4166667   0.0000000), wk =   0.0027778
        k(  248) = (   0.3333333  -0.4166667   0.2000000), wk =   0.0027778
        k(  249) = (   0.3333333  -0.4166667   0.4000000), wk =   0.0027778
        k(  250) = (   0.3333333  -0.4166667  -0.4000000), wk =   0.0027778
        k(  251) = (   0.3333333  -0.4166667  -0.2000000), wk =   0.0027778
        k(  252) = (   0.3333333  -0.3333333   0.0000000), wk =   0.0027778
        k(  253) = (   0.3333333  -0.3333333   0.2000000), wk =   0.0027778
        k(  254) = (   0.3333333  -0.3333333   0.4000000), wk =   0.0027778
        k(  255) = (   0.3333333  -0.3333333  -0.4000000), wk =   0.0027778
        k(  256) = (   0.3333333  -0.3333333  -0.2000000), wk =   0.0027778
        k(  257) = (   0.3333333  -0.2500000   0.0000000), wk =   0.0027778
        k(  258) = (   0.3333333  -0.2500000   0.2000000), wk =   0.0027778
        k(  259) = (   0.3333333  -0.2500000   0.4000000), wk =   0.0027778
        k(  260) = (   0.3333333  -0.2500000  -0.4000000), wk =   0.0027778
        k(  261) = (   0.3333333  -0.2500000  -0.2000000), wk =   0.0027778
        k(  262) = (   0.3333333  -0.1666667   0.0000000), wk =   0.0027778
        k(  263) = (   0.3333333  -0.1666667   0.2000000), wk =   0.0027778
        k(  264) = (   0.3333333  -0.1666667   0.4000000), wk =   0.0027778
        k(  265) = (   0.3333333  -0.1666667  -0.4000000), wk =   0.0027778
        k(  266) = (   0.3333333  -0.1666667  -0.2000000), wk =   0.0027778
        k(  267) = (   0.3333333  -0.0833333   0.0000000), wk =   0.0027778
        k(  268) = (   0.3333333  -0.0833333   0.2000000), wk =   0.0027778
        k(  269) = (   0.3333333  -0.0833333   0.4000000), wk =   0.0027778
        k(  270) = (   0.3333333  -0.0833333  -0.4000000), wk =   0.0027778
        k(  271) = (   0.3333333  -0.0833333  -0.2000000), wk =   0.0027778
        k(  272) = (   0.4166667  -0.0000000   0.0000000), wk =   0.0027778
        k(  273) = (   0.4166667  -0.0000000   0.2000000), wk =   0.0027778
        k(  274) = (   0.4166667  -0.0000000   0.4000000), wk =   0.0027778
        k(  275) = (   0.4166667  -0.0000000  -0.4000000), wk =   0.0027778
        k(  276) = (   0.4166667  -0.0000000  -0.2000000), wk =   0.0027778
        k(  277) = (   0.4166667   0.0833333   0.0000000), wk =   0.0027778
        k(  278) = (   0.4166667   0.0833333   0.2000000), wk =   0.0027778
        k(  279) = (   0.4166667   0.0833333   0.4000000), wk =   0.0027778
        k(  280) = (   0.4166667   0.0833333  -0.4000000), wk =   0.0027778
        k(  281) = (   0.4166667   0.0833333  -0.2000000), wk =   0.0027778
        k(  282) = (   0.4166667   0.1666667   0.0000000), wk =   0.0027778
        k(  283) = (   0.4166667   0.1666667   0.2000000), wk =   0.0027778
        k(  284) = (   0.4166667   0.1666667   0.4000000), wk =   0.0027778
        k(  285) = (   0.4166667   0.1666667  -0.4000000), wk =   0.0027778
        k(  286) = (   0.4166667   0.1666667  -0.2000000), wk =   0.0027778
        k(  287) = (   0.4166667   0.2500000   0.0000000), wk =   0.0027778
        k(  288) = (   0.4166667   0.2500000   0.2000000), wk =   0.0027778
        k(  289) = (   0.4166667   0.2500000   0.4000000), wk =   0.0027778
        k(  290) = (   0.4166667   0.2500000  -0.4000000), wk =   0.0027778
        k(  291) = (   0.4166667   0.2500000  -0.2000000), wk =   0.0027778
        k(  292) = (   0.4166667   0.3333333   0.0000000), wk =   0.0027778
        k(  293) = (   0.4166667   0.3333333   0.2000000), wk =   0.0027778
        k(  294) = (   0.4166667   0.3333333   0.4000000), wk =   0.0027778
        k(  295) = (   0.4166667   0.3333333  -0.4000000), wk =   0.0027778
        k(  296) = (   0.4166667   0.3333333  -0.2000000), wk =   0.0027778
        k(  297) = (   0.4166667   0.4166667   0.0000000), wk =   0.0027778
        k(  298) = (   0.4166667   0.4166667   0.2000000), wk =   0.0027778
        k(  299) = (   0.4166667   0.4166667   0.4000000), wk =   0.0027778
        k(  300) = (   0.4166667   0.4166667  -0.4000000), wk =   0.0027778
        k(  301) = (   0.4166667   0.4166667  -0.2000000), wk =   0.0027778
        k(  302) = (   0.4166667  -0.5000000   0.0000000), wk =   0.0027778
        k(  303) = (   0.4166667  -0.5000000   0.2000000), wk =   0.0027778
        k(  304) = (   0.4166667  -0.5000000   0.4000000), wk =   0.0027778
        k(  305) = (   0.4166667  -0.5000000  -0.4000000), wk =   0.0027778
        k(  306) = (   0.4166667  -0.5000000  -0.2000000), wk =   0.0027778
        k(  307) = (   0.4166667  -0.4166667   0.0000000), wk =   0.0027778
        k(  308) = (   0.4166667  -0.4166667   0.2000000), wk =   0.0027778
        k(  309) = (   0.4166667  -0.4166667   0.4000000), wk =   0.0027778
        k(  310) = (   0.4166667  -0.4166667  -0.4000000), wk =   0.0027778
        k(  311) = (   0.4166667  -0.4166667  -0.2000000), wk =   0.0027778
        k(  312) = (   0.4166667  -0.3333333   0.0000000), wk =   0.0027778
        k(  313) = (   0.4166667  -0.3333333   0.2000000), wk =   0.0027778
        k(  314) = (   0.4166667  -0.3333333   0.4000000), wk =   0.0027778
        k(  315) = (   0.4166667  -0.3333333  -0.4000000), wk =   0.0027778
        k(  316) = (   0.4166667  -0.3333333  -0.2000000), wk =   0.0027778
        k(  317) = (   0.4166667  -0.2500000   0.0000000), wk =   0.0027778
        k(  318) = (   0.4166667  -0.2500000   0.2000000), wk =   0.0027778
        k(  319) = (   0.4166667  -0.2500000   0.4000000), wk =   0.0027778
        k(  320) = (   0.4166667  -0.2500000  -0.4000000), wk =   0.0027778
        k(  321) = (   0.4166667  -0.2500000  -0.2000000), wk =   0.0027778
        k(  322) = (   0.4166667  -0.1666667   0.0000000), wk =   0.0027778
        k(  323) = (   0.4166667  -0.1666667   0.2000000), wk =   0.0027778
        k(  324) = (   0.4166667  -0.1666667   0.4000000), wk =   0.0027778
        k(  325) = (   0.4166667  -0.1666667  -0.4000000), wk =   0.0027778
        k(  326) = (   0.4166667  -0.1666667  -0.2000000), wk =   0.0027778
        k(  327) = (   0.4166667  -0.0833333   0.0000000), wk =   0.0027778
        k(  328) = (   0.4166667  -0.0833333   0.2000000), wk =   0.0027778
        k(  329) = (   0.4166667  -0.0833333   0.4000000), wk =   0.0027778
        k(  330) = (   0.4166667  -0.0833333  -0.4000000), wk =   0.0027778
        k(  331) = (   0.4166667  -0.0833333  -0.2000000), wk =   0.0027778
        k(  332) = (  -0.5000000   0.0000000   0.0000000), wk =   0.0013889
        k(  333) = (  -0.5000000   0.0000000   0.2000000), wk =   0.0027778
        k(  334) = (  -0.5000000   0.0000000   0.4000000), wk =   0.0027778
        k(  335) = (  -0.5000000   0.0833333   0.0000000), wk =   0.0027778
        k(  336) = (  -0.5000000   0.0833333   0.2000000), wk =   0.0027778
        k(  337) = (  -0.5000000   0.0833333   0.4000000), wk =   0.0027778
        k(  338) = (  -0.5000000   0.0833333  -0.4000000), wk =   0.0027778
        k(  339) = (  -0.5000000   0.0833333  -0.2000000), wk =   0.0027778
        k(  340) = (  -0.5000000   0.1666667   0.0000000), wk =   0.0027778
        k(  341) = (  -0.5000000   0.1666667   0.2000000), wk =   0.0027778
        k(  342) = (  -0.5000000   0.1666667   0.4000000), wk =   0.0027778
        k(  343) = (  -0.5000000   0.1666667  -0.4000000), wk =   0.0027778
        k(  344) = (  -0.5000000   0.1666667  -0.2000000), wk =   0.0027778
        k(  345) = (  -0.5000000   0.2500000   0.0000000), wk =   0.0027778
        k(  346) = (  -0.5000000   0.2500000   0.2000000), wk =   0.0027778
        k(  347) = (  -0.5000000   0.2500000   0.4000000), wk =   0.0027778
        k(  348) = (  -0.5000000   0.2500000  -0.4000000), wk =   0.0027778
        k(  349) = (  -0.5000000   0.2500000  -0.2000000), wk =   0.0027778
        k(  350) = (  -0.5000000   0.3333333   0.0000000), wk =   0.0027778
        k(  351) = (  -0.5000000   0.3333333   0.2000000), wk =   0.0027778
        k(  352) = (  -0.5000000   0.3333333   0.4000000), wk =   0.0027778
        k(  353) = (  -0.5000000   0.3333333  -0.4000000), wk =   0.0027778
        k(  354) = (  -0.5000000   0.3333333  -0.2000000), wk =   0.0027778
        k(  355) = (  -0.5000000   0.4166667   0.0000000), wk =   0.0027778
        k(  356) = (  -0.5000000   0.4166667   0.2000000), wk =   0.0027778
        k(  357) = (  -0.5000000   0.4166667   0.4000000), wk =   0.0027778
        k(  358) = (  -0.5000000   0.4166667  -0.4000000), wk =   0.0027778
        k(  359) = (  -0.5000000   0.4166667  -0.2000000), wk =   0.0027778
        k(  360) = (  -0.5000000  -0.5000000   0.0000000), wk =   0.0013889
        k(  361) = (  -0.5000000  -0.5000000   0.2000000), wk =   0.0027778
        k(  362) = (  -0.5000000  -0.5000000   0.4000000), wk =   0.0027778

     Dense  grid:    33091 G-vectors     FFT dimensions: (  36,  36,  72)

     Smooth grid:    14259 G-vectors     FFT dimensions: (  25,  25,  54)

     Dynamical RAM for                 wfc:       0.10 MB

     Dynamical RAM for     wfc (w. buffer):      14.56 MB

     Dynamical RAM for           str. fact:       0.17 MB

     Dynamical RAM for           local pot:       0.00 MB

     Dynamical RAM for          nlocal pot:       0.33 MB

     Dynamical RAM for                qrad:       2.69 MB

     Dynamical RAM for          rho,v,vnew:       1.22 MB

     Dynamical RAM for               rhoin:       0.41 MB

     Dynamical RAM for            rho*nmix:       2.69 MB

     Dynamical RAM for           G-vectors:       0.33 MB

     Dynamical RAM for          h,s,v(r/c):       0.09 MB

     Dynamical RAM for          <psi|beta>:       0.02 MB

     Dynamical RAM for                 psi:       0.20 MB

     Dynamical RAM for                hpsi:       0.20 MB

     Dynamical RAM for                spsi:       0.20 MB

     Dynamical RAM for      wfcinit/wfcrot:       0.27 MB

     Dynamical RAM for           addusdens:       3.31 MB

     Estimated static dynamical RAM per process >      20.66 MB

     Estimated max dynamical RAM per process >      26.66 MB

     Estimated total dynamical RAM >     735.28 MB

     Check: negative core charge=   -0.000005
     Generating pointlists ...
     new r_m :   0.3148 (alat units)  1.9610 (a.u.) for type    1
     new r_m :   0.3148 (alat units)  1.9610 (a.u.) for type    2

     Initial potential from superposition of free atoms

     starting charge      33.9998, renormalised to      36.0000

     negative rho (up, down):  1.527E-03 6.251E-04
     Starting wfcs are   28 randomized atomic wfcs

     total cpu time spent up to now is        1.7 secs

     per-process dynamical memory:    57.7 Mb

     Self-consistent Calculation

     iteration #  1     ecut=    40.00 Ry     beta= 0.40
     Davidson diagonalization with overlap

---- Real-time Memory Report at c_bands before calling an iterative solver
            71 MiB given to the printing process from OS
            56 MiB allocation reported by mallinfo(arena+hblkhd)
         12887 MiB available memory on the node where the printing process lives
------------------
     ethr =  1.00E-02,  avg # of iterations =  3.6

     negative rho (up, down):  1.022E-03 8.980E-04

     total cpu time spent up to now is        4.3 secs

     total energy              =    -286.82635008 Ry
     estimated scf accuracy    <       0.60340486 Ry

     total magnetization       =     3.42 Bohr mag/cell
     absolute magnetization    =     3.62 Bohr mag/cell

     iteration #  2     ecut=    40.00 Ry     beta= 0.40
     Davidson diagonalization with overlap

---- Real-time Memory Report at c_bands before calling an iterative solver
            77 MiB given to the printing process from OS
            61 MiB allocation reported by mallinfo(arena+hblkhd)
         12859 MiB available memory on the node where the printing process lives
------------------
     ethr =  1.68E-03,  avg # of iterations =  2.0

     negative rho (up, down):  4.936E-04 1.583E-03

     total cpu time spent up to now is        6.1 secs

     total energy              =    -287.01208390 Ry
     estimated scf accuracy    <       0.18902409 Ry

     total magnetization       =     3.20 Bohr mag/cell
     absolute magnetization    =     3.46 Bohr mag/cell

     iteration #  3     ecut=    40.00 Ry     beta= 0.40
     Davidson diagonalization with overlap

---- Real-time Memory Report at c_bands before calling an iterative solver
            78 MiB given to the printing process from OS
            61 MiB allocation reported by mallinfo(arena+hblkhd)
         12857 MiB available memory on the node where the printing process lives
------------------
     ethr =  5.25E-04,  avg # of iterations =  2.0

     negative rho (up, down):  2.339E-04 1.549E-03

     total cpu time spent up to now is        8.0 secs

     total energy              =    -287.07267907 Ry
     estimated scf accuracy    <       0.04643078 Ry

     total magnetization       =     2.31 Bohr mag/cell
     absolute magnetization    =     2.66 Bohr mag/cell

     iteration #  4     ecut=    40.00 Ry     beta= 0.40
     Davidson diagonalization with overlap

---- Real-time Memory Report at c_bands before calling an iterative solver
            78 MiB given to the printing process from OS
            61 MiB allocation reported by mallinfo(arena+hblkhd)
         12856 MiB available memory on the node where the printing process lives
------------------
     ethr =  1.29E-04,  avg # of iterations =  2.9

     negative rho (up, down):  2.798E-04 1.190E-03

     total cpu time spent up to now is       10.4 secs

     total energy              =    -287.09910207 Ry
     estimated scf accuracy    <       0.00637318 Ry

     total magnetization       =     1.15 Bohr mag/cell
     absolute magnetization    =     1.53 Bohr mag/cell

     iteration #  5     ecut=    40.00 Ry     beta= 0.40
     Davidson diagonalization with overlap

---- Real-time Memory Report at c_bands before calling an iterative solver
            78 MiB given to the printing process from OS
            61 MiB allocation reported by mallinfo(arena+hblkhd)
         12855 MiB available memory on the node where the printing process lives
------------------
     ethr =  1.77E-05,  avg # of iterations =  7.4

     negative rho (up, down):  3.624E-04 1.119E-03

     total cpu time spent up to now is       13.9 secs

     total energy              =    -287.10569428 Ry
     estimated scf accuracy    <       0.00770291 Ry

     total magnetization       =     0.97 Bohr mag/cell
     absolute magnetization    =     1.26 Bohr mag/cell

     iteration #  6     ecut=    40.00 Ry     beta= 0.40
     Davidson diagonalization with overlap

---- Real-time Memory Report at c_bands before calling an iterative solver
            78 MiB given to the printing process from OS
            61 MiB allocation reported by mallinfo(arena+hblkhd)
         12854 MiB available memory on the node where the printing process lives
------------------
     ethr =  1.77E-05,  avg # of iterations =  2.4

     negative rho (up, down):  5.828E-04 9.595E-04

     total cpu time spent up to now is       15.8 secs

     total energy              =    -287.11192216 Ry
     estimated scf accuracy    <       0.00282048 Ry

     total magnetization       =     0.72 Bohr mag/cell
     absolute magnetization    =     0.98 Bohr mag/cell

     iteration #  7     ecut=    40.00 Ry     beta= 0.40
     Davidson diagonalization with overlap

---- Real-time Memory Report at c_bands before calling an iterative solver
            78 MiB given to the printing process from OS
            61 MiB allocation reported by mallinfo(arena+hblkhd)
         12854 MiB available memory on the node where the printing process lives
------------------
     ethr =  7.83E-06,  avg # of iterations =  5.0

     negative rho (up, down):  7.499E-04 8.224E-04

     total cpu time spent up to now is       18.6 secs

     total energy              =    -287.11482831 Ry
     estimated scf accuracy    <       0.00113483 Ry

     total magnetization       =     0.46 Bohr mag/cell
     absolute magnetization    =     0.63 Bohr mag/cell

     iteration #  8     ecut=    40.00 Ry     beta= 0.40
     Davidson diagonalization with overlap

---- Real-time Memory Report at c_bands before calling an iterative solver
            79 MiB given to the printing process from OS
            61 MiB allocation reported by mallinfo(arena+hblkhd)
         12852 MiB available memory on the node where the printing process lives
------------------
     c_bands:  1 eigenvalues not converged
     c_bands:  1 eigenvalues not converged
     ethr =  3.15E-06,  avg # of iterations =  7.5

     negative rho (up, down):  7.642E-04 8.110E-04

     total cpu time spent up to now is       22.0 secs

     total energy              =    -287.11756657 Ry
     estimated scf accuracy    <       0.00040356 Ry

     total magnetization       =     0.14 Bohr mag/cell
     absolute magnetization    =     0.19 Bohr mag/cell

     iteration #  9     ecut=    40.00 Ry     beta= 0.40
     Davidson diagonalization with overlap

---- Real-time Memory Report at c_bands before calling an iterative solver
            79 MiB given to the printing process from OS
            62 MiB allocation reported by mallinfo(arena+hblkhd)
         12851 MiB available memory on the node where the printing process lives
------------------
     c_bands:  1 eigenvalues not converged
     ethr =  1.12E-06,  avg # of iterations =  2.7

     negative rho (up, down):  7.800E-04 7.883E-04

     total cpu time spent up to now is       24.6 secs

     total energy              =    -287.11760222 Ry
     estimated scf accuracy    <       0.00011173 Ry

     total magnetization       =     0.11 Bohr mag/cell
     absolute magnetization    =     0.14 Bohr mag/cell

     iteration # 10     ecut=    40.00 Ry     beta= 0.40
     Davidson diagonalization with overlap

---- Real-time Memory Report at c_bands before calling an iterative solver
            79 MiB given to the printing process from OS
            62 MiB allocation reported by mallinfo(arena+hblkhd)
         12850 MiB available memory on the node where the printing process lives
------------------
     c_bands:  1 eigenvalues not converged
     c_bands:  1 eigenvalues not converged
     ethr =  3.10E-07,  avg # of iterations =  6.3

     negative rho (up, down):  7.833E-04 7.854E-04

     total cpu time spent up to now is       27.7 secs

     total energy              =    -287.11781780 Ry
     estimated scf accuracy    <       0.00001997 Ry

     total magnetization       =     0.01 Bohr mag/cell
     absolute magnetization    =     0.02 Bohr mag/cell

     iteration # 11     ecut=    40.00 Ry     beta= 0.40
     Davidson diagonalization with overlap

---- Real-time Memory Report at c_bands before calling an iterative solver
            79 MiB given to the printing process from OS
            62 MiB allocation reported by mallinfo(arena+hblkhd)
         12850 MiB available memory on the node where the printing process lives
------------------
     c_bands:  1 eigenvalues not converged
     ethr =  5.55E-08,  avg # of iterations =  4.8

     negative rho (up, down):  7.856E-04 7.833E-04

     total cpu time spent up to now is       30.3 secs

     total energy              =    -287.11782492 Ry
     estimated scf accuracy    <       0.00000243 Ry

     total magnetization       =     0.01 Bohr mag/cell
     absolute magnetization    =     0.01 Bohr mag/cell

     iteration # 12     ecut=    40.00 Ry     beta= 0.40
     Davidson diagonalization with overlap

---- Real-time Memory Report at c_bands before calling an iterative solver
            79 MiB given to the printing process from OS
            62 MiB allocation reported by mallinfo(arena+hblkhd)
         12849 MiB available memory on the node where the printing process lives
------------------
     ethr =  6.76E-09,  avg # of iterations =  4.9

     negative rho (up, down):  7.848E-04 7.839E-04

     total cpu time spent up to now is       33.0 secs

     total energy              =    -287.11782718 Ry
     estimated scf accuracy    <       0.00000044 Ry

     total magnetization       =    -0.00 Bohr mag/cell
     absolute magnetization    =     0.00 Bohr mag/cell

     iteration # 13     ecut=    40.00 Ry     beta= 0.40
     Davidson diagonalization with overlap

---- Real-time Memory Report at c_bands before calling an iterative solver
            79 MiB given to the printing process from OS
            62 MiB allocation reported by mallinfo(arena+hblkhd)
         12850 MiB available memory on the node where the printing process lives
------------------
     ethr =  1.22E-09,  avg # of iterations =  4.3

     negative rho (up, down):  7.843E-04 7.842E-04

     total cpu time spent up to now is       35.6 secs

     total energy              =    -287.11782735 Ry
     estimated scf accuracy    <       0.00000018 Ry

     total magnetization       =    -0.00 Bohr mag/cell
     absolute magnetization    =     0.00 Bohr mag/cell

     iteration # 14     ecut=    40.00 Ry     beta= 0.40
     Davidson diagonalization with overlap

---- Real-time Memory Report at c_bands before calling an iterative solver
            79 MiB given to the printing process from OS
            62 MiB allocation reported by mallinfo(arena+hblkhd)
         12849 MiB available memory on the node where the printing process lives
------------------
     ethr =  5.00E-10,  avg # of iterations =  2.3

     negative rho (up, down):  7.844E-04 7.842E-04

     total cpu time spent up to now is       37.6 secs

     total energy              =    -287.11782739 Ry
     estimated scf accuracy    <       0.00000003 Ry

     total magnetization       =    -0.00 Bohr mag/cell
     absolute magnetization    =     0.00 Bohr mag/cell

     iteration # 15     ecut=    40.00 Ry     beta= 0.40
     Davidson diagonalization with overlap

---- Real-time Memory Report at c_bands before calling an iterative solver
            79 MiB given to the printing process from OS
            62 MiB allocation reported by mallinfo(arena+hblkhd)
         12850 MiB available memory on the node where the printing process lives
------------------
     ethr =  7.02E-11,  avg # of iterations =  5.0

     negative rho (up, down):  7.844E-04 7.843E-04

     total cpu time spent up to now is       40.3 secs

     total energy              =    -287.11782741 Ry
     estimated scf accuracy    <          8.4E-09 Ry

     total magnetization       =    -0.00 Bohr mag/cell
     absolute magnetization    =     0.00 Bohr mag/cell

     iteration # 16     ecut=    40.00 Ry     beta= 0.40
     Davidson diagonalization with overlap

---- Real-time Memory Report at c_bands before calling an iterative solver
            79 MiB given to the printing process from OS
            62 MiB allocation reported by mallinfo(arena+hblkhd)
         12850 MiB available memory on the node where the printing process lives
------------------
     ethr =  2.33E-11,  avg # of iterations =  3.4

     negative rho (up, down):  7.843E-04 7.843E-04

     Magnetic moment per site  (integrated on atomic sphere of radius R)
     atom   1 (R=0.315)  charge=  4.5242  magn=  0.0000
     atom   2 (R=0.315)  charge=  4.5242  magn=  0.0000
     atom   3 (R=0.315)  charge=  9.8666  magn=  0.0001
     atom   4 (R=0.315)  charge=  9.8666  magn= -0.0002

     total cpu time spent up to now is       42.7 secs

     End of self-consistent calculation

 ------ SPIN UP ------------


          k = 0.0000 0.0000 0.0000 (  1765 PWs)   bands (ev):

   -44.2379 -44.2274 -20.6438 -20.4948 -20.4253 -20.4253 -20.4127 -20.4127
    -2.4572  -1.3075   5.4466   9.5609   9.5613   9.6980  11.0536  11.5973
    11.5975  12.8903  12.8903  13.1835  13.1836  14.4183

     occupation numbers 
     1.0000   1.0000   1.0000   1.0000   1.0000   1.0000   1.0000   1.0000
     1.0000   1.0000   1.0000   1.0000   1.0000   1.0000   1.0000   1.0000
     1.0000   1.0791   1.0791   0.2882   0.2880   0.0000

          k = 0.0000 0.0000 0.1002 (  1801 PWs)   bands (ev):

   -44.2369 -44.2284 -20.6298 -20.5093 -20.4241 -20.4241 -20.4139 -20.4139
    -2.3658  -1.4428   5.7489   8.9179   9.6707   9.6711  11.1568  11.1571
    11.6805  13.2581  13.2582  13.3595  13.3596  14.2631

     occupation numbers 
     1.0000   1.0000   1.0000   1.0000   1.0000   1.0000   1.0000   1.0000
     1.0000   1.0000   1.0000   1.0000   1.0000   1.0000   1.0000   1.0000
     1.0000   0.1199   0.1198   0.0241   0.0240   0.0000

          k = 0.0000 0.0000 0.2003 (  1813 PWs)   bands (ev):

   -44.2343 -44.2310 -20.5928 -20.5468 -20.4209 -20.4209 -20.4171 -20.4171
    -2.1124  -1.7640   6.5624   7.6928   9.9945   9.9948  10.5108  10.5111
    12.5818  13.4566  13.4568  13.4702  13.6576  13.6578

     occupation numbers 
     1.0000   1.0000   1.0000   1.0000   1.0000   1.0000   1.0000   1.0000
     1.0000   1.0000   1.0000   1.0000   1.0000   1.0000   1.0000   1.0000
     1.0030   0.0033   0.0033   0.0024   0.0000   0.0000

          k = 0.0000 0.0962 0.0000 (  1791 PWs)   bands (ev):

   -44.2366 -44.2262 -20.6407 -20.4931 -20.4377 -20.4281 -20.4241 -20.4154
    -2.3652  -1.2714   5.5669   9.3417   9.5209   9.5477  10.7293  11.3147
    11.3395  12.9815  13.0237  13.3292  13.4966  14.3915

     occupation numbers 
     1.0000   1.0000   1.0000   1.0000   1.0000   1.0000   1.0000   1.0000
     1.0000   1.0000   1.0000   1.0000   1.0000   1.0000   1.0000   1.0000
     1.0000   0.9635   0.8482   0.0409   0.0013   0.0000

          k = 0.0000 0.0962 0.1002 (  1797 PWs)   bands (ev):

   -44.2356 -44.2272 -20.6268 -20.5074 -20.4364 -20.4269 -20.4254 -20.4166
    -2.2773  -1.3985   5.8530   8.8402   9.4407   9.6527  10.5556  10.9949
    11.8760  13.0910  13.1566  13.5061  13.6891  14.3116

     occupation numbers 
     1.0000   1.0000   1.0000   1.0000   1.0000   1.0000   1.0000   1.0000
     1.0000   1.0000   1.0000   1.0000   1.0000   1.0000   1.0000   1.0000
     1.0000   0.6096   0.3722   0.0010   0.0000   0.0000

          k = 0.0000 0.0962 0.2003 (  1794 PWs)   bands (ev):

   -44.2330 -44.2298 -20.5902 -20.5446 -20.4330 -20.4288 -20.4237 -20.4198
    -2.0345  -1.7023   6.6241   7.6947   9.7236   9.9596  10.1385  10.4373
    12.7212  13.2720  13.4230  13.5568  13.6422  13.6900

     occupation numbers 
     1.0000   1.0000   1.0000   1.0000   1.0000   1.0000   1.0000   1.0000
     1.0000   1.0000   1.0000   1.0000   1.0000   1.0000   1.0000   1.0000
     1.0302   0.0990   0.0069   0.0003   0.0000   0.0000

          k = 0.0000 0.0962-0.2003 (  1794 PWs)   bands (ev):

   -44.2330 -44.2298 -20.5902 -20.5446 -20.4330 -20.4288 -20.4237 -20.4198
    -2.0345  -1.7023   6.6241   7.6947   9.7236   9.9596  10.1385  10.4373
    12.7212  13.2718  13.4232  13.5570  13.6422  13.6898

     occupation numbers 
     1.0000   1.0000   1.0000   1.0000   1.0000   1.0000   1.0000   1.0000
     1.0000   1.0000   1.0000   1.0000   1.0000   1.0000   1.0000   1.0000
     1.0302   0.0993   0.0068   0.0003   0.0000   0.0000

          k = 0.0000 0.0962-0.1002 (  1797 PWs)   bands (ev):

   -44.2356 -44.2272 -20.6268 -20.5074 -20.4364 -20.4269 -20.4254 -20.4166
    -2.2773  -1.3985   5.8530   8.8402   9.4406   9.6527  10.5556  10.9949
    11.8760  13.0909  13.1567  13.5063  13.6888  14.3116

     occupation numbers 
     1.0000   1.0000   1.0000   1.0000   1.0000   1.0000   1.0000   1.0000
     1.0000   1.0000   1.0000   1.0000   1.0000   1.0000   1.0000   1.0000
     1.0000   0.6102   0.3717   0.0010   0.0000   0.0000

          k = 0.0000 0.1925 0.0000 (  1785 PWs)   bands (ev):

[...]

     occupation numbers 
     1.0000   1.0000   1.0000   1.0000   1.0000   1.0000   1.0000   1.0000
     1.0000   1.0000   1.0000   1.0000   1.0000   1.0000   1.0000   1.0000
     1.0000   1.0003   0.0000   0.0000   0.0000   0.0000

          k =-0.5000-0.2887 0.0000 (  1788 PWs)   bands (ev):

   -44.2190 -44.2092 -20.6100 -20.5947 -20.5809 -20.4689 -20.4668 -20.4522
    -0.8265  -0.4963   5.6620   7.0175   7.5265   8.2894   8.9199  10.1670
    11.2313  12.2287  13.7659  14.9170  15.0476  15.1231

     occupation numbers 
     1.0000   1.0000   1.0000   1.0000   1.0000   1.0000   1.0000   1.0000
     1.0000   1.0000   1.0000   1.0000   1.0000   1.0000   1.0000   1.0000
     1.0000   1.0000   0.0000   0.0000   0.0000   0.0000

          k =-0.5000-0.2887 0.1002 (  1788 PWs)   bands (ev):

   -44.2181 -44.2101 -20.6064 -20.5836 -20.5835 -20.4812 -20.4654 -20.4536
    -0.7952  -0.5281   5.7433   6.7363   7.7539   8.2597   9.0088   9.9974
    11.3709  12.2128  14.0532  14.9291  14.9681  15.0351

     occupation numbers 
     1.0000   1.0000   1.0000   1.0000   1.0000   1.0000   1.0000   1.0000
     1.0000   1.0000   1.0000   1.0000   1.0000   1.0000   1.0000   1.0000
     1.0000   1.0000   0.0000   0.0000   0.0000   0.0000

          k =-0.5000-0.2887 0.2003 (  1782 PWs)   bands (ev):

   -44.2156 -44.2126 -20.5989 -20.5903 -20.5526 -20.5133 -20.4618 -20.4573
    -0.7132  -0.6112   5.9749   6.3241   8.0157   8.1741   9.2615   9.6283
    11.7173  12.0651  14.7715  14.8128  14.9521  14.9613

     occupation numbers 
     1.0000   1.0000   1.0000   1.0000   1.0000   1.0000   1.0000   1.0000
     1.0000   1.0000   1.0000   1.0000   1.0000   1.0000   1.0000   1.0000
     1.0000   1.0000   0.0000   0.0000   0.0000   0.0000

          k =-0.5000-0.1925 0.0000 (  1790 PWs)   bands (ev):

   -44.2190 -44.2092 -20.6041 -20.5937 -20.5746 -20.4738 -20.4689 -20.4586
    -0.8110  -0.5230   5.8215   7.0581   7.5568   8.2421   8.8417   9.5320
    11.7841  12.3416  13.7301  14.6981  14.9858  15.0891

     occupation numbers 
     1.0000   1.0000   1.0000   1.0000   1.0000   1.0000   1.0000   1.0000
     1.0000   1.0000   1.0000   1.0000   1.0000   1.0000   1.0000   1.0000
     1.0000   1.0000   0.0000   0.0000   0.0000   0.0000

          k =-0.5000-0.1925 0.1002 (  1787 PWs)   bands (ev):

   -44.2181 -44.2101 -20.5998 -20.5835 -20.5771 -20.4812 -20.4724 -20.4601
    -0.7834  -0.5503   5.8954   6.8020   7.7699   8.2223   8.8994   9.4661
    11.8050  12.3119  13.9801  14.7060  14.8814  15.0420

     occupation numbers 
     1.0000   1.0000   1.0000   1.0000   1.0000   1.0000   1.0000   1.0000
     1.0000   1.0000   1.0000   1.0000   1.0000   1.0000   1.0000   1.0000
     1.0000   1.0000   0.0000   0.0000   0.0000   0.0000

          k =-0.5000-0.1925 0.2003 (  1787 PWs)   bands (ev):

   -44.2156 -44.2126 -20.5922 -20.5839 -20.5526 -20.5133 -20.4686 -20.4639
    -0.7112  -0.6221   6.1059   6.4244   8.0197   8.1593   9.0598   9.2810
    11.9506  12.1780  14.4717  14.6910  14.7971  15.0457

     occupation numbers 
     1.0000   1.0000   1.0000   1.0000   1.0000   1.0000   1.0000   1.0000
     1.0000   1.0000   1.0000   1.0000   1.0000   1.0000   1.0000   1.0000
     1.0000   1.0000   0.0000   0.0000   0.0000   0.0000

          k =-0.5000-0.1925-0.2003 (  1787 PWs)   bands (ev):

   -44.2156 -44.2126 -20.5922 -20.5839 -20.5526 -20.5133 -20.4686 -20.4639
    -0.7112  -0.6221   6.1059   6.4244   8.0197   8.1593   9.0598   9.2810
    11.9506  12.1781  14.4717  14.6910  14.7971  15.0453

     occupation numbers 
     1.0000   1.0000   1.0000   1.0000   1.0000   1.0000   1.0000   1.0000
     1.0000   1.0000   1.0000   1.0000   1.0000   1.0000   1.0000   1.0000
     1.0000   1.0000   0.0000   0.0000   0.0000   0.0000

          k =-0.5000-0.1925-0.1002 (  1787 PWs)   bands (ev):

   -44.2181 -44.2101 -20.5998 -20.5835 -20.5771 -20.4812 -20.4724 -20.4601
    -0.7834  -0.5503   5.8954   6.8020   7.7699   8.2223   8.8994   9.4661
    11.8050  12.3119  13.9802  14.7060  14.8813  15.0413

     occupation numbers 
     1.0000   1.0000   1.0000   1.0000   1.0000   1.0000   1.0000   1.0000
     1.0000   1.0000   1.0000   1.0000   1.0000   1.0000   1.0000   1.0000
     1.0000   1.0000   0.0000   0.0000   0.0000   0.0000

          k =-0.5000-0.0962 0.0000 (  1794 PWs)   bands (ev):

   -44.2190 -44.2092 -20.5977 -20.5834 -20.5593 -20.4908 -20.4743 -20.4688
    -0.7685  -0.5875   6.2343   7.1509   7.6317   8.1347   8.5397   8.7612
    12.5214  12.6255  13.5615  14.1337  14.9145  15.0822

     occupation numbers 
     1.0000   1.0000   1.0000   1.0000   1.0000   1.0000   1.0000   1.0000
     1.0000   1.0000   1.0000   1.0000   1.0000   1.0000   1.0000   1.0000
     1.0008   1.0070   0.0002   0.0000   0.0000   0.0000

          k =-0.5000-0.0962 0.1002 (  1788 PWs)   bands (ev):

   -44.2181 -44.2101 -20.5868 -20.5800 -20.5616 -20.4893 -20.4814 -20.4756
    -0.7503  -0.6038   6.2872   6.9610   7.7979   8.1372   8.5632   8.7330
    12.4421  12.5572  13.6630  14.3604  14.7406  15.0830

     occupation numbers 
     1.0000   1.0000   1.0000   1.0000   1.0000   1.0000   1.0000   1.0000
     1.0000   1.0000   1.0000   1.0000   1.0000   1.0000   1.0000   1.0000
     1.0001   1.0018   0.0000   0.0000   0.0000   0.0000

          k =-0.5000-0.0962 0.2003 (  1781 PWs)   bands (ev):

   -44.2156 -44.2126 -20.5759 -20.5683 -20.5525 -20.5134 -20.4850 -20.4799
    -0.7035  -0.6475   6.4392   6.6746   8.0105   8.1196   8.6092   8.6684
    12.3678  12.4253  13.9758  14.3724  14.7555  15.0324

     occupation numbers 
     1.0000   1.0000   1.0000   1.0000   1.0000   1.0000   1.0000   1.0000
     1.0000   1.0000   1.0000   1.0000   1.0000   1.0000   1.0000   1.0000
     1.0000   1.0001   0.0000   0.0000   0.0000   0.0000

          k =-0.5000-0.0962-0.2003 (  1781 PWs)   bands (ev):

   -44.2156 -44.2126 -20.5759 -20.5683 -20.5525 -20.5134 -20.4850 -20.4799
    -0.7035  -0.6475   6.4392   6.6746   8.0105   8.1196   8.6092   8.6684
    12.3678  12.4252  13.9759  14.3724  14.7555  15.0323

     occupation numbers 
     1.0000   1.0000   1.0000   1.0000   1.0000   1.0000   1.0000   1.0000
     1.0000   1.0000   1.0000   1.0000   1.0000   1.0000   1.0000   1.0000
     1.0000   1.0001   0.0000   0.0000   0.0000   0.0000

          k =-0.5000-0.0962-0.1002 (  1788 PWs)   bands (ev):

   -44.2181 -44.2101 -20.5868 -20.5800 -20.5616 -20.4893 -20.4814 -20.4756
    -0.7503  -0.6038   6.2872   6.9610   7.7979   8.1372   8.5632   8.7330
    12.4422  12.5571  13.6630  14.3603  14.7406  15.0835

     occupation numbers 
     1.0000   1.0000   1.0000   1.0000   1.0000   1.0000   1.0000   1.0000
     1.0000   1.0000   1.0000   1.0000   1.0000   1.0000   1.0000   1.0000
     1.0001   1.0018   0.0000   0.0000   0.0000   0.0000

          k =-0.5000 0.0000 0.0000 (  1772 PWs)   bands (ev):

   -44.2190 -44.2092 -20.5971 -20.5728 -20.5489 -20.5022 -20.4847 -20.4688
    -0.7297  -0.6371   6.5496   7.2085   7.6828   8.0682   8.0796   8.6368
    12.8518  12.9700  13.3716  13.7166  14.9098  15.0822

     occupation numbers 
     1.0000   1.0000   1.0000   1.0000   1.0000   1.0000   1.0000   1.0000
     1.0000   1.0000   1.0000   1.0000   1.0000   1.0000   1.0000   1.0000
     1.0823   0.9882   0.0192   0.0000   0.0000   0.0000

          k =-0.5000 0.0000 0.1002 (  1782 PWs)   bands (ev):

   -44.2181 -44.2101 -20.5851 -20.5706 -20.5511 -20.5005 -20.4867 -20.4809
    -0.7195  -0.6446   6.5822   7.0645   7.8116   8.0657   8.1386   8.5900
    12.6753  12.9521  13.2444  14.2048  14.7108  15.0726

     occupation numbers 
     1.0000   1.0000   1.0000   1.0000   1.0000   1.0000   1.0000   1.0000
     1.0000   1.0000   1.0000   1.0000   1.0000   1.0000   1.0000   1.0000
     1.0161   1.0205   0.1435   0.0000   0.0000   0.0000

          k =-0.5000 0.0000 0.2003 (  1780 PWs)   bands (ev):

   -44.2156 -44.2126 -20.5648 -20.5586 -20.5518 -20.5135 -20.4961 -20.4906
    -0.6942  -0.6656   6.6806   6.8469   7.9767   8.0550   8.2801   8.4564
    12.5554  12.6245  13.6905  14.2120  14.7316  15.0025

     occupation numbers 
     1.0000   1.0000   1.0000   1.0000   1.0000   1.0000   1.0000   1.0000
     1.0000   1.0000   1.0000   1.0000   1.0000   1.0000   1.0000   1.0000
     1.0017   1.0069   0.0000   0.0000   0.0000   0.0000

          k =-0.5000 0.0000-0.2003 (  1780 PWs)   bands (ev):

   -44.2156 -44.2126 -20.5648 -20.5586 -20.5518 -20.5135 -20.4961 -20.4906
    -0.6942  -0.6656   6.6806   6.8469   7.9767   8.0550   8.2801   8.4564
    12.5554  12.6245  13.6905  14.2121  14.7316  15.0024

     occupation numbers 
     1.0000   1.0000   1.0000   1.0000   1.0000   1.0000   1.0000   1.0000
     1.0000   1.0000   1.0000   1.0000   1.0000   1.0000   1.0000   1.0000
     1.0017   1.0069   0.0000   0.0000   0.0000   0.0000

          k =-0.5000 0.0000-0.1002 (  1782 PWs)   bands (ev):

   -44.2181 -44.2101 -20.5851 -20.5706 -20.5511 -20.5005 -20.4867 -20.4809
    -0.7195  -0.6446   6.5822   7.0645   7.8116   8.0657   8.1386   8.5900
    12.6753  12.9521  13.2444  14.2048  14.7108  15.0727

     occupation numbers 
     1.0000   1.0000   1.0000   1.0000   1.0000   1.0000   1.0000   1.0000
     1.0000   1.0000   1.0000   1.0000   1.0000   1.0000   1.0000   1.0000
     1.0161   1.0205   0.1436   0.0000   0.0000   0.0000

          k =-0.5000 0.0962 0.0000 (  1794 PWs)   bands (ev):

   -44.2190 -44.2092 -20.5977 -20.5834 -20.5593 -20.4908 -20.4743 -20.4688
    -0.7685  -0.5875   6.2343   7.1509   7.6317   8.1347   8.5397   8.7612
    12.5214  12.6255  13.5615  14.1337  14.9133  15.0820

     occupation numbers 
     1.0000   1.0000   1.0000   1.0000   1.0000   1.0000   1.0000   1.0000
     1.0000   1.0000   1.0000   1.0000   1.0000   1.0000   1.0000   1.0000
     1.0008   1.0070   0.0002   0.0000   0.0000   0.0000

          k =-0.5000 0.0962 0.1002 (  1788 PWs)   bands (ev):

   -44.2181 -44.2101 -20.5868 -20.5800 -20.5616 -20.4893 -20.4814 -20.4756
    -0.7503  -0.6038   6.2872   6.9610   7.7979   8.1372   8.5632   8.7330
    12.4421  12.5571  13.6630  14.3603  14.7406  15.0833

     occupation numbers 
     1.0000   1.0000   1.0000   1.0000   1.0000   1.0000   1.0000   1.0000
     1.0000   1.0000   1.0000   1.0000   1.0000   1.0000   1.0000   1.0000
     1.0001   1.0018   0.0000   0.0000   0.0000   0.0000

          k =-0.5000 0.0962 0.2003 (  1781 PWs)   bands (ev):

   -44.2156 -44.2126 -20.5759 -20.5683 -20.5525 -20.5134 -20.4850 -20.4799
    -0.7035  -0.6475   6.4392   6.6746   8.0105   8.1196   8.6092   8.6684
    12.3678  12.4252  13.9759  14.3724  14.7556  15.0329

     occupation numbers 
     1.0000   1.0000   1.0000   1.0000   1.0000   1.0000   1.0000   1.0000
     1.0000   1.0000   1.0000   1.0000   1.0000   1.0000   1.0000   1.0000
     1.0000   1.0001   0.0000   0.0000   0.0000   0.0000

          k =-0.5000 0.0962-0.2003 (  1781 PWs)   bands (ev):

   -44.2156 -44.2126 -20.5759 -20.5683 -20.5525 -20.5134 -20.4850 -20.4799
    -0.7035  -0.6475   6.4392   6.6746   8.0105   8.1196   8.6092   8.6684
    12.3678  12.4253  13.9758  14.3725  14.7556  15.0325

     occupation numbers 
     1.0000   1.0000   1.0000   1.0000   1.0000   1.0000   1.0000   1.0000
     1.0000   1.0000   1.0000   1.0000   1.0000   1.0000   1.0000   1.0000
     1.0000   1.0001   0.0000   0.0000   0.0000   0.0000

          k =-0.5000 0.0962-0.1002 (  1788 PWs)   bands (ev):

   -44.2181 -44.2101 -20.5868 -20.5800 -20.5616 -20.4893 -20.4814 -20.4756
    -0.7503  -0.6038   6.2872   6.9610   7.7979   8.1372   8.5632   8.7330
    12.4421  12.5572  13.6630  14.3604  14.7406  15.0833

     occupation numbers 
     1.0000   1.0000   1.0000   1.0000   1.0000   1.0000   1.0000   1.0000
     1.0000   1.0000   1.0000   1.0000   1.0000   1.0000   1.0000   1.0000
     1.0001   1.0018   0.0000   0.0000   0.0000   0.0000

          k =-0.5000 0.1925 0.0000 (  1790 PWs)   bands (ev):

   -44.2190 -44.2092 -20.6041 -20.5937 -20.5746 -20.4738 -20.4689 -20.4586
    -0.8110  -0.5230   5.8215   7.0581   7.5568   8.2421   8.8417   9.5320
    11.7841  12.3416  13.7301  14.6981  14.9860  15.0891

     occupation numbers 
     1.0000   1.0000   1.0000   1.0000   1.0000   1.0000   1.0000   1.0000
     1.0000   1.0000   1.0000   1.0000   1.0000   1.0000   1.0000   1.0000
     1.0000   1.0000   0.0000   0.0000   0.0000   0.0000

          k =-0.5000 0.1925 0.1002 (  1787 PWs)   bands (ev):

   -44.2181 -44.2101 -20.5998 -20.5835 -20.5771 -20.4812 -20.4724 -20.4601
    -0.7834  -0.5503   5.8954   6.8020   7.7699   8.2223   8.8994   9.4661
    11.8050  12.3119  13.9802  14.7060  14.8813  15.0413

     occupation numbers 
     1.0000   1.0000   1.0000   1.0000   1.0000   1.0000   1.0000   1.0000
     1.0000   1.0000   1.0000   1.0000   1.0000   1.0000   1.0000   1.0000
     1.0000   1.0000   0.0000   0.0000   0.0000   0.0000

          k =-0.5000 0.1925 0.2003 (  1787 PWs)   bands (ev):

   -44.2156 -44.2126 -20.5922 -20.5839 -20.5526 -20.5133 -20.4686 -20.4639
    -0.7112  -0.6221   6.1059   6.4244   8.0197   8.1593   9.0598   9.2810
    11.9506  12.1781  14.4717  14.6910  14.7971  15.0459

     occupation numbers 
     1.0000   1.0000   1.0000   1.0000   1.0000   1.0000   1.0000   1.0000
     1.0000   1.0000   1.0000   1.0000   1.0000   1.0000   1.0000   1.0000
     1.0000   1.0000   0.0000   0.0000   0.0000   0.0000

          k =-0.5000 0.1925-0.2003 (  1787 PWs)   bands (ev):

   -44.2156 -44.2126 -20.5922 -20.5839 -20.5526 -20.5133 -20.4686 -20.4639
    -0.7112  -0.6221   6.1059   6.4244   8.0197   8.1593   9.0598   9.2810
    11.9506  12.1780  14.4717  14.6910  14.7971  15.0453

     occupation numbers 
     1.0000   1.0000   1.0000   1.0000   1.0000   1.0000   1.0000   1.0000
     1.0000   1.0000   1.0000   1.0000   1.0000   1.0000   1.0000   1.0000
     1.0000   1.0000   0.0000   0.0000   0.0000   0.0000

          k =-0.5000 0.1925-0.1002 (  1787 PWs)   bands (ev):

   -44.2181 -44.2101 -20.5998 -20.5835 -20.5771 -20.4812 -20.4724 -20.4601
    -0.7834  -0.5503   5.8954   6.8020   7.7699   8.2223   8.8994   9.4661
    11.8050  12.3119  13.9801  14.7060  14.8814  15.0416

     occupation numbers 
     1.0000   1.0000   1.0000   1.0000   1.0000   1.0000   1.0000   1.0000
     1.0000   1.0000   1.0000   1.0000   1.0000   1.0000   1.0000   1.0000
     1.0000   1.0000   0.0000   0.0000   0.0000   0.0000

          k =-0.5000-0.8660 0.0000 (  1788 PWs)   bands (ev):

   -44.2190 -44.2092 -20.6100 -20.5947 -20.5809 -20.4689 -20.4668 -20.4522
    -0.8265  -0.4963   5.6620   7.0175   7.5265   8.2894   8.9199  10.1670
    11.2313  12.2287  13.7659  14.9170  15.0476  15.1233

     occupation numbers 
     1.0000   1.0000   1.0000   1.0000   1.0000   1.0000   1.0000   1.0000
     1.0000   1.0000   1.0000   1.0000   1.0000   1.0000   1.0000   1.0000
     1.0000   1.0000   0.0000   0.0000   0.0000   0.0000

          k =-0.5000-0.8660 0.1002 (  1788 PWs)   bands (ev):

   -44.2181 -44.2101 -20.6064 -20.5836 -20.5835 -20.4812 -20.4654 -20.4536
    -0.7952  -0.5281   5.7433   6.7363   7.7539   8.2597   9.0088   9.9974
    11.3709  12.2128  14.0532  14.9291  14.9680  15.0350

     occupation numbers 
     1.0000   1.0000   1.0000   1.0000   1.0000   1.0000   1.0000   1.0000
     1.0000   1.0000   1.0000   1.0000   1.0000   1.0000   1.0000   1.0000
     1.0000   1.0000   0.0000   0.0000   0.0000   0.0000

          k =-0.5000-0.8660 0.2003 (  1782 PWs)   bands (ev):

   -44.2156 -44.2126 -20.5989 -20.5903 -20.5526 -20.5133 -20.4618 -20.4573
    -0.7132  -0.6112   5.9749   6.3241   8.0157   8.1741   9.2615   9.6283
    11.7173  12.0651  14.7715  14.8128  14.9521  14.9613

     occupation numbers 
     1.0000   1.0000   1.0000   1.0000   1.0000   1.0000   1.0000   1.0000
     1.0000   1.0000   1.0000   1.0000   1.0000   1.0000   1.0000   1.0000
     1.0000   1.0000   0.0000   0.0000   0.0000   0.0000

     the Fermi energy is    13.1481 ev

!    total energy              =    -287.11782741 Ry
     estimated scf accuracy    <          6.7E-10 Ry
     smearing contrib. (-TS)   =      -0.00010624 Ry
     internal energy E=F+TS    =    -287.11772117 Ry

     The total energy is F=E-TS. E is the sum of the following terms:
     one-electron contribution =     -82.53132177 Ry
     hartree contribution      =      56.92806494 Ry
     xc contribution           =     -53.29032392 Ry
     ewald contribution        =    -208.22414043 Ry

     total magnetization       =    -0.00 Bohr mag/cell
     absolute magnetization    =     0.00 Bohr mag/cell

     convergence has been achieved in  16 iterations

     Writing all to output data dir ./out/TiS.save/

     init_run     :      1.49s CPU      0.88s WALL (       1 calls)
     electrons    :     67.32s CPU     41.40s WALL (       1 calls)

     Called by init_run:
     wfcinit      :      1.22s CPU      0.65s WALL (       1 calls)
     wfcinit:atom :      0.02s CPU      0.02s WALL (     145 calls)
     wfcinit:wfcr :      1.01s CPU      0.54s WALL (     145 calls)
     potinit      :      0.08s CPU      0.05s WALL (       1 calls)
     hinit0       :      0.15s CPU      0.15s WALL (       1 calls)

     Called by electrons:
     c_bands      :     56.61s CPU     32.53s WALL (      16 calls)
     sum_band     :      8.78s CPU      6.46s WALL (      16 calls)
     v_of_rho     :      0.67s CPU      0.38s WALL (      17 calls)
     v_h          :      0.02s CPU      0.01s WALL (      17 calls)
     v_xc         :      0.65s CPU      0.37s WALL (      17 calls)
     newd         :      0.45s CPU      0.27s WALL (      17 calls)
     mix_rho      :      0.08s CPU      0.04s WALL (      16 calls)

     Called by c_bands:
     init_us_2    :      1.21s CPU      0.64s WALL (    4785 calls)
     init_us_2:cp :      1.20s CPU      0.63s WALL (    4785 calls)
     cegterg      :     45.51s CPU     24.73s WALL (    2320 calls)

     Called by sum_band:
     sum_band:wei :      0.31s CPU      0.29s WALL (      16 calls)
     sum_band:loo :      6.60s CPU      3.65s WALL (      16 calls)
     sum_band:buf :      0.12s CPU      0.07s WALL (    2320 calls)
     sum_band:ini :      0.50s CPU      0.28s WALL (    2320 calls)
     sum_band:cal :      0.64s CPU      0.37s WALL (    2320 calls)
     sum_band:bec :      0.09s CPU      0.05s WALL (    2320 calls)
     addusdens    :      0.82s CPU      0.71s WALL (      16 calls)
     addusd:skk   :      0.00s CPU      0.00s WALL (      32 calls)
     addusd:dgemm :      0.12s CPU      0.06s WALL (      64 calls)
     addusd:qvan2 :      0.28s CPU      0.15s WALL (      64 calls)

     Called by *egterg:
     cdiaghg      :      8.80s CPU      4.53s WALL (   11428 calls)
     cegterg:over :      2.08s CPU      1.28s WALL (    9108 calls)
     cegterg:upda :      0.70s CPU      0.38s WALL (    9108 calls)
     cegterg:last :      1.17s CPU      0.59s WALL (    5117 calls)
     h_psi        :     30.63s CPU     16.78s WALL (   11573 calls)
     s_psi        :      1.33s CPU      0.64s WALL (   11573 calls)
     g_psi        :      0.13s CPU      0.08s WALL (    9108 calls)

     Called by h_psi:
     h_psi:calbec :      2.52s CPU      1.45s WALL (   11573 calls)
     vloc_psi     :     26.48s CPU     14.45s WALL (   11573 calls)
     add_vuspsi   :      1.27s CPU      0.69s WALL (   11573 calls)

     General routines
     calbec       :      3.12s CPU      1.80s WALL (   13893 calls)
     fft          :      0.30s CPU      0.53s WALL (     419 calls)
     ffts         :      0.19s CPU      0.31s WALL (      66 calls)
     fftw         :     27.13s CPU     14.77s WALL (  326928 calls)
     interpolate  :      0.02s CPU      0.01s WALL (      34 calls)

     Parallel routines

     PWSCF        :   1m11.33s CPU   1m14.97s WALL


   This run was terminated on:   7:21:35   6Oct2023            

=------------------------------------------------------------------------------=
   JOB DONE.
=------------------------------------------------------------------------------=
