
     Program PWSCF v.7.1 starts on  6Oct2023 at  7:42:49 

     This program is part of the open-source Quantum ESPRESSO suite
     for quantum simulation of materials; please cite
         "P. Giannozzi et al., J. Phys.:Condens. Matter 21 395502 (2009);
         "P. Giannozzi et al., J. Phys.:Condens. Matter 29 465901 (2017);
         "P. Giannozzi et al., J. Chem. Phys. 152 154105 (2020);
          URL http://www.quantum-espresso.org", 
     in publications or presentations arising from this work. More details at
     http://www.quantum-espresso.org/quote

     Parallel version (MPI & OpenMP), running on      60 processor cores
     Number of MPI processes:                30
     Threads/MPI process:                     2

     MPI processes distributed on     5 nodes
     12559 MiB available memory on the printing compute node when the environment starts

     Reading input from TiS.nscf-bands.in

     Current dimensions of program PWSCF are:
     Max number of different atomic species (ntypx) = 10
     Max number of k-points (npk) =  40000
     Max angular momentum in pseudopotentials (lmaxx) =  4

     Atomic positions and unit cell read from directory:
     ./out/TiS.save/
     Atomic positions from file used, from input discarded

     Message from routine set_cutoff:
     ecutrho < 4*ecutwfc, are you sure?

     K-points division:     npool     =      30
     Subspace diagonalization in iterative solution of the eigenvalue problem:
     a serial algorithm will be used


     G-vector sticks info
     --------------------
     sticks:   dense  smooth     PW     G-vecs:    dense   smooth      PW
     Sum         745     745    439                33091    33091   15285

     Using Slab Decomposition



     bravais-lattice index     =            0
     lattice parameter (alat)  =       6.2293  a.u.
     unit-cell volume          =     417.9542 (a.u.)^3
     number of atoms/cell      =            4
     number of atomic types    =            2
     number of electrons       =        36.00
     number of Kohn-Sham states=           40
     kinetic-energy cutoff     =     150.0000  Ry
     charge density cutoff     =     280.0000  Ry
     Exchange-correlation=  SLA  PW   PBX  PBC
                           (   1   4   3   4   0   0   0)

     celldm(1)=   6.229263  celldm(2)=   0.000000  celldm(3)=   0.000000
     celldm(4)=   0.000000  celldm(5)=   0.000000  celldm(6)=   0.000000

     crystal axes: (cart. coord. in units of alat)
               a(1) = (   1.000000   0.000000   0.000000 )  
               a(2) = (  -0.500000   0.866025   0.000000 )  
               a(3) = (   0.000000   0.000000   1.996586 )  

     reciprocal axes: (cart. coord. in units 2 pi/alat)
               b(1) = (  1.000000  0.577350 -0.000000 )  
               b(2) = (  0.000000  1.154701  0.000000 )  
               b(3) = (  0.000000 -0.000000  0.500855 )  


     PseudoPot. # 1 for S  read from file:
     /home/tcmp/apps/pseudopotential/s_pbe_v1.4.uspp.F.UPF
     MD5 check sum: 88d86576ff6df21479756cfb9bdac1df
     Pseudo is Ultrasoft + core correction, Zval =  6.0
     Generated by new atomic code, or converted to UPF format
     Using radial grid of  907 points,  6 beta functions with: 
                l(1) =   0
                l(2) =   0
                l(3) =   1
                l(4) =   1
                l(5) =   2
                l(6) =   2
     Q(r) pseudized with  8 coefficients,  rinner =    1.300   1.300   1.300
                                                       1.300   1.300

     PseudoPot. # 2 for Ti read from file:
     /home/tcmp/apps/pseudopotential/ti_pbe_v1.4.uspp.F.UPF
     MD5 check sum: 88a00a6731bd790ddea75d31a80cb452
     Pseudo is Ultrasoft + core correction, Zval = 12.0
     Generated by new atomic code, or converted to UPF format
     Using radial grid of  851 points,  6 beta functions with: 
                l(1) =   0
                l(2) =   0
                l(3) =   1
                l(4) =   1
                l(5) =   2
                l(6) =   2
     Q(r) pseudized with  6 coefficients,  rinner =    1.000   1.000   1.000
                                                       1.000   1.000

     atomic species   valence    mass     pseudopotential
        S              6.00    32.06500     S ( 1.00)
        Ti            12.00    47.86700     Ti( 1.00)

     Starting magnetic structure 
     atomic species   magnetization
        S            0.100
        Ti           0.417

     No symmetry found


                                    s                        frac. trans.

      isym =  1     identity                                     

 cryst.   s( 1) = (     1          0          0      )
                  (     0          1          0      )
                  (     0          0          1      )

 cart.    s( 1) = (  1.0000000 -0.0000000  0.0000000 )
                  (  0.0000000  1.0000000  0.0000000 )
                  (  0.0000000  0.0000000  1.0000000 )


   Cartesian axes

     site n.     atom                  positions (alat units)
         1           S   tau(   1) = (   0.5000000   0.2887168   0.4991465  )
         2           S   tau(   2) = (  -0.0000000   0.5773086   1.4974395  )
         3           Ti  tau(   3) = (   0.0000000   0.0000000   0.0000000  )
         4           Ti  tau(   4) = (   0.0000000   0.0000000   0.9982930  )

   Crystallographic axes

     site n.     atom                  positions (cryst. coord.)
         1           S   tau(   1) = (  0.6666907  0.3333814  0.2500000  )
         2           S   tau(   2) = (  0.3333093  0.6666186  0.7500000  )
         3           Ti  tau(   3) = (  0.0000000  0.0000000  0.0000000  )
         4           Ti  tau(   4) = (  0.0000000  0.0000000  0.5000000  )

     number of k points=   351  Marzari-Vanderbilt smearing, width (Ry)=  0.0147
                       cart. coord. in units 2pi/alat
        k(    1) = (   0.5000000   0.2886751   0.0000000), wk =   0.0028490
        k(    2) = (   0.4966660   0.2944475   0.0000000), wk =   0.0028490
        k(    3) = (   0.4933320   0.3002198   0.0000000), wk =   0.0028490
        k(    4) = (   0.4899980   0.3059922   0.0000000), wk =   0.0028490
        k(    5) = (   0.4866640   0.3117645   0.0000000), wk =   0.0028490
        k(    6) = (   0.4833300   0.3175369   0.0000000), wk =   0.0028490
        k(    7) = (   0.4799960   0.3233092   0.0000000), wk =   0.0028490
        k(    8) = (   0.4766620   0.3290816   0.0000000), wk =   0.0028490
        k(    9) = (   0.4733280   0.3348539   0.0000000), wk =   0.0028490
        k(   10) = (   0.4699940   0.3406263   0.0000000), wk =   0.0028490
        k(   11) = (   0.4666600   0.3463986   0.0000000), wk =   0.0028490
        k(   12) = (   0.4633260   0.3521710   0.0000000), wk =   0.0028490
        k(   13) = (   0.4599920   0.3579433   0.0000000), wk =   0.0028490
        k(   14) = (   0.4566580   0.3637157   0.0000000), wk =   0.0028490
        k(   15) = (   0.4533240   0.3694880   0.0000000), wk =   0.0028490
        k(   16) = (   0.4499900   0.3752604   0.0000000), wk =   0.0028490
        k(   17) = (   0.4466560   0.3810327   0.0000000), wk =   0.0028490
        k(   18) = (   0.4433220   0.3868051   0.0000000), wk =   0.0028490
        k(   19) = (   0.4399880   0.3925774   0.0000000), wk =   0.0028490
        k(   20) = (   0.4366540   0.3983497   0.0000000), wk =   0.0028490
        k(   21) = (   0.4333200   0.4041221   0.0000000), wk =   0.0028490
        k(   22) = (   0.4299860   0.4098944   0.0000000), wk =   0.0028490
        k(   23) = (   0.4266520   0.4156668   0.0000000), wk =   0.0028490
        k(   24) = (   0.4233180   0.4214391   0.0000000), wk =   0.0028490
        k(   25) = (   0.4199840   0.4272115   0.0000000), wk =   0.0028490
        k(   26) = (   0.4166500   0.4329838   0.0000000), wk =   0.0028490
        k(   27) = (   0.4133160   0.4387562   0.0000000), wk =   0.0028490
        k(   28) = (   0.4099820   0.4445285   0.0000000), wk =   0.0028490
        k(   29) = (   0.4066480   0.4503009   0.0000000), wk =   0.0028490
        k(   30) = (   0.4033140   0.4560732   0.0000000), wk =   0.0028490
        k(   31) = (   0.3999800   0.4618456   0.0000000), wk =   0.0028490
        k(   32) = (   0.3966460   0.4676179   0.0000000), wk =   0.0028490
        k(   33) = (   0.3933120   0.4733903   0.0000000), wk =   0.0028490
        k(   34) = (   0.3899780   0.4791626   0.0000000), wk =   0.0028490
        k(   35) = (   0.3866440   0.4849350   0.0000000), wk =   0.0028490
        k(   36) = (   0.3833100   0.4907073   0.0000000), wk =   0.0028490
        k(   37) = (   0.3799760   0.4964797   0.0000000), wk =   0.0028490
        k(   38) = (   0.3766420   0.5022520   0.0000000), wk =   0.0028490
        k(   39) = (   0.3733080   0.5080244   0.0000000), wk =   0.0028490
        k(   40) = (   0.3699740   0.5137967   0.0000000), wk =   0.0028490
        k(   41) = (   0.3666400   0.5195691   0.0000000), wk =   0.0028490
        k(   42) = (   0.3633060   0.5253414   0.0000000), wk =   0.0028490
        k(   43) = (   0.3599720   0.5311138   0.0000000), wk =   0.0028490
        k(   44) = (   0.3566380   0.5368861   0.0000000), wk =   0.0028490
        k(   45) = (   0.3533040   0.5426584   0.0000000), wk =   0.0028490
        k(   46) = (   0.3499700   0.5484308   0.0000000), wk =   0.0028490
        k(   47) = (   0.3466360   0.5542031   0.0000000), wk =   0.0028490
        k(   48) = (   0.3433020   0.5599755   0.0000000), wk =   0.0028490
        k(   49) = (   0.3399680   0.5657478   0.0000000), wk =   0.0028490
        k(   50) = (   0.3366340   0.5715202   0.0000000), wk =   0.0028490
        k(   51) = (   0.3333000   0.5772925   0.0000000), wk =   0.0028490
        k(   52) = (   0.3266340   0.5657467   0.0000000), wk =   0.0028490
        k(   53) = (   0.3199680   0.5542008   0.0000000), wk =   0.0028490
        k(   54) = (   0.3133020   0.5426550   0.0000000), wk =   0.0028490
        k(   55) = (   0.3066360   0.5311091   0.0000000), wk =   0.0028490
        k(   56) = (   0.2999700   0.5195633   0.0000000), wk =   0.0028490
        k(   57) = (   0.2933040   0.5080174   0.0000000), wk =   0.0028490
        k(   58) = (   0.2866380   0.4964716   0.0000000), wk =   0.0028490
        k(   59) = (   0.2799720   0.4849257   0.0000000), wk =   0.0028490
        k(   60) = (   0.2733060   0.4733799   0.0000000), wk =   0.0028490
        k(   61) = (   0.2666400   0.4618340   0.0000000), wk =   0.0028490
        k(   62) = (   0.2599740   0.4502882   0.0000000), wk =   0.0028490
        k(   63) = (   0.2533080   0.4387423   0.0000000), wk =   0.0028490
        k(   64) = (   0.2466420   0.4271965   0.0000000), wk =   0.0028490
        k(   65) = (   0.2399760   0.4156506   0.0000000), wk =   0.0028490
        k(   66) = (   0.2333100   0.4041048   0.0000000), wk =   0.0028490
        k(   67) = (   0.2266440   0.3925589   0.0000000), wk =   0.0028490
        k(   68) = (   0.2199780   0.3810131   0.0000000), wk =   0.0028490
        k(   69) = (   0.2133120   0.3694672   0.0000000), wk =   0.0028490
        k(   70) = (   0.2066460   0.3579214   0.0000000), wk =   0.0028490
        k(   71) = (   0.1999800   0.3463755   0.0000000), wk =   0.0028490
        k(   72) = (   0.1933140   0.3348297   0.0000000), wk =   0.0028490
        k(   73) = (   0.1866480   0.3232838   0.0000000), wk =   0.0028490
        k(   74) = (   0.1799820   0.3117380   0.0000000), wk =   0.0028490
        k(   75) = (   0.1733160   0.3001921   0.0000000), wk =   0.0028490
        k(   76) = (   0.1666500   0.2886463   0.0000000), wk =   0.0028490
        k(   77) = (   0.1599840   0.2771004   0.0000000), wk =   0.0028490
        k(   78) = (   0.1533180   0.2655546   0.0000000), wk =   0.0028490
        k(   79) = (   0.1466520   0.2540087   0.0000000), wk =   0.0028490
        k(   80) = (   0.1399860   0.2424629   0.0000000), wk =   0.0028490
        k(   81) = (   0.1333200   0.2309170   0.0000000), wk =   0.0028490
        k(   82) = (   0.1266540   0.2193712   0.0000000), wk =   0.0028490
        k(   83) = (   0.1199880   0.2078253   0.0000000), wk =   0.0028490
        k(   84) = (   0.1133220   0.1962795   0.0000000), wk =   0.0028490
        k(   85) = (   0.1066560   0.1847336   0.0000000), wk =   0.0028490
        k(   86) = (   0.0999900   0.1731878   0.0000000), wk =   0.0028490
        k(   87) = (   0.0933240   0.1616419   0.0000000), wk =   0.0028490
        k(   88) = (   0.0866580   0.1500961   0.0000000), wk =   0.0028490
        k(   89) = (   0.0799920   0.1385502   0.0000000), wk =   0.0028490
        k(   90) = (   0.0733260   0.1270044   0.0000000), wk =   0.0028490
        k(   91) = (   0.0666600   0.1154585   0.0000000), wk =   0.0028490
        k(   92) = (   0.0599940   0.1039127   0.0000000), wk =   0.0028490
        k(   93) = (   0.0533280   0.0923668   0.0000000), wk =   0.0028490
        k(   94) = (   0.0466620   0.0808210   0.0000000), wk =   0.0028490
        k(   95) = (   0.0399960   0.0692751   0.0000000), wk =   0.0028490
        k(   96) = (   0.0333300   0.0577293   0.0000000), wk =   0.0028490
        k(   97) = (   0.0266640   0.0461834   0.0000000), wk =   0.0028490
        k(   98) = (   0.0199980   0.0346376   0.0000000), wk =   0.0028490
        k(   99) = (   0.0133320   0.0230917   0.0000000), wk =   0.0028490
        k(  100) = (   0.0066660   0.0115459   0.0000000), wk =   0.0028490
        k(  101) = (   0.0000000   0.0000000   0.0000000), wk =   0.0028490
        k(  102) = (   0.0100000   0.0057735   0.0000000), wk =   0.0028490
        k(  103) = (   0.0200000   0.0115470   0.0000000), wk =   0.0028490
        k(  104) = (   0.0300000   0.0173205   0.0000000), wk =   0.0028490
        k(  105) = (   0.0400000   0.0230940   0.0000000), wk =   0.0028490
        k(  106) = (   0.0500000   0.0288675   0.0000000), wk =   0.0028490
        k(  107) = (   0.0600000   0.0346410   0.0000000), wk =   0.0028490
        k(  108) = (   0.0700000   0.0404145   0.0000000), wk =   0.0028490
        k(  109) = (   0.0800000   0.0461880   0.0000000), wk =   0.0028490
        k(  110) = (   0.0900000   0.0519615   0.0000000), wk =   0.0028490
        k(  111) = (   0.1000000   0.0577350   0.0000000), wk =   0.0028490
        k(  112) = (   0.1100000   0.0635085   0.0000000), wk =   0.0028490
        k(  113) = (   0.1200000   0.0692820   0.0000000), wk =   0.0028490
        k(  114) = (   0.1300000   0.0750555   0.0000000), wk =   0.0028490
        k(  115) = (   0.1400000   0.0808290   0.0000000), wk =   0.0028490
        k(  116) = (   0.1500000   0.0866025   0.0000000), wk =   0.0028490
        k(  117) = (   0.1600000   0.0923760   0.0000000), wk =   0.0028490
        k(  118) = (   0.1700000   0.0981495   0.0000000), wk =   0.0028490
        k(  119) = (   0.1800000   0.1039230   0.0000000), wk =   0.0028490
        k(  120) = (   0.1900000   0.1096966   0.0000000), wk =   0.0028490
        k(  121) = (   0.2000000   0.1154701   0.0000000), wk =   0.0028490
        k(  122) = (   0.2100000   0.1212436   0.0000000), wk =   0.0028490
        k(  123) = (   0.2200000   0.1270171   0.0000000), wk =   0.0028490
        k(  124) = (   0.2300000   0.1327906   0.0000000), wk =   0.0028490
        k(  125) = (   0.2400000   0.1385641   0.0000000), wk =   0.0028490
        k(  126) = (   0.2500000   0.1443376   0.0000000), wk =   0.0028490
        k(  127) = (   0.2600000   0.1501111   0.0000000), wk =   0.0028490
        k(  128) = (   0.2700000   0.1558846   0.0000000), wk =   0.0028490
        k(  129) = (   0.2800000   0.1616581   0.0000000), wk =   0.0028490
        k(  130) = (   0.2900000   0.1674316   0.0000000), wk =   0.0028490
        k(  131) = (   0.3000000   0.1732051   0.0000000), wk =   0.0028490
        k(  132) = (   0.3100000   0.1789786   0.0000000), wk =   0.0028490
        k(  133) = (   0.3200000   0.1847521   0.0000000), wk =   0.0028490
        k(  134) = (   0.3300000   0.1905256   0.0000000), wk =   0.0028490
        k(  135) = (   0.3400000   0.1962991   0.0000000), wk =   0.0028490
        k(  136) = (   0.3500000   0.2020726   0.0000000), wk =   0.0028490
        k(  137) = (   0.3600000   0.2078461   0.0000000), wk =   0.0028490
        k(  138) = (   0.3700000   0.2136196   0.0000000), wk =   0.0028490
        k(  139) = (   0.3800000   0.2193931   0.0000000), wk =   0.0028490
        k(  140) = (   0.3900000   0.2251666   0.0000000), wk =   0.0028490
        k(  141) = (   0.4000000   0.2309401   0.0000000), wk =   0.0028490
        k(  142) = (   0.4100000   0.2367136   0.0000000), wk =   0.0028490
        k(  143) = (   0.4200000   0.2424871   0.0000000), wk =   0.0028490
        k(  144) = (   0.4300000   0.2482606   0.0000000), wk =   0.0028490
        k(  145) = (   0.4400000   0.2540341   0.0000000), wk =   0.0028490
        k(  146) = (   0.4500000   0.2598076   0.0000000), wk =   0.0028490
        k(  147) = (   0.4600000   0.2655811   0.0000000), wk =   0.0028490
        k(  148) = (   0.4700000   0.2713546   0.0000000), wk =   0.0028490
        k(  149) = (   0.4800000   0.2771281   0.0000000), wk =   0.0028490
        k(  150) = (   0.4900000   0.2829016   0.0000000), wk =   0.0028490
        k(  151) = (   0.5000000   0.2886751   0.0000000), wk =   0.0028490
        k(  152) = (   0.4900000   0.2829016   0.0000000), wk =   0.0028490
        k(  153) = (   0.4800000   0.2771281   0.0000000), wk =   0.0028490
        k(  154) = (   0.4700000   0.2713546   0.0000000), wk =   0.0028490
        k(  155) = (   0.4600000   0.2655811   0.0000000), wk =   0.0028490
        k(  156) = (   0.4500000   0.2598076   0.0000000), wk =   0.0028490
        k(  157) = (   0.4400000   0.2540341   0.0000000), wk =   0.0028490
        k(  158) = (   0.4300000   0.2482606   0.0000000), wk =   0.0028490
        k(  159) = (   0.4200000   0.2424871   0.0000000), wk =   0.0028490
        k(  160) = (   0.4100000   0.2367136   0.0000000), wk =   0.0028490
        k(  161) = (   0.4000000   0.2309401   0.0000000), wk =   0.0028490
        k(  162) = (   0.3900000   0.2251666   0.0000000), wk =   0.0028490
        k(  163) = (   0.3800000   0.2193931   0.0000000), wk =   0.0028490
        k(  164) = (   0.3700000   0.2136196   0.0000000), wk =   0.0028490
        k(  165) = (   0.3600000   0.2078461   0.0000000), wk =   0.0028490
        k(  166) = (   0.3500000   0.2020726   0.0000000), wk =   0.0028490
        k(  167) = (   0.3400000   0.1962991   0.0000000), wk =   0.0028490
        k(  168) = (   0.3300000   0.1905256   0.0000000), wk =   0.0028490
        k(  169) = (   0.3200000   0.1847521   0.0000000), wk =   0.0028490
        k(  170) = (   0.3100000   0.1789786   0.0000000), wk =   0.0028490
        k(  171) = (   0.3000000   0.1732051   0.0000000), wk =   0.0028490
        k(  172) = (   0.2900000   0.1674316   0.0000000), wk =   0.0028490
        k(  173) = (   0.2800000   0.1616581   0.0000000), wk =   0.0028490
        k(  174) = (   0.2700000   0.1558846   0.0000000), wk =   0.0028490
        k(  175) = (   0.2600000   0.1501111   0.0000000), wk =   0.0028490
        k(  176) = (   0.2500000   0.1443376   0.0000000), wk =   0.0028490
        k(  177) = (   0.2400000   0.1385641   0.0000000), wk =   0.0028490
        k(  178) = (   0.2300000   0.1327906   0.0000000), wk =   0.0028490
        k(  179) = (   0.2200000   0.1270171   0.0000000), wk =   0.0028490
        k(  180) = (   0.2100000   0.1212436   0.0000000), wk =   0.0028490
        k(  181) = (   0.2000000   0.1154701   0.0000000), wk =   0.0028490
        k(  182) = (   0.1900000   0.1096966   0.0000000), wk =   0.0028490
        k(  183) = (   0.1800000   0.1039230   0.0000000), wk =   0.0028490
        k(  184) = (   0.1700000   0.0981495   0.0000000), wk =   0.0028490
        k(  185) = (   0.1600000   0.0923760   0.0000000), wk =   0.0028490
        k(  186) = (   0.1500000   0.0866025   0.0000000), wk =   0.0028490
        k(  187) = (   0.1400000   0.0808290   0.0000000), wk =   0.0028490
        k(  188) = (   0.1300000   0.0750555   0.0000000), wk =   0.0028490
        k(  189) = (   0.1200000   0.0692820   0.0000000), wk =   0.0028490
        k(  190) = (   0.1100000   0.0635085   0.0000000), wk =   0.0028490
        k(  191) = (   0.1000000   0.0577350   0.0000000), wk =   0.0028490
        k(  192) = (   0.0900000   0.0519615   0.0000000), wk =   0.0028490
        k(  193) = (   0.0800000   0.0461880   0.0000000), wk =   0.0028490
        k(  194) = (   0.0700000   0.0404145   0.0000000), wk =   0.0028490
        k(  195) = (   0.0600000   0.0346410   0.0000000), wk =   0.0028490
        k(  196) = (   0.0500000   0.0288675   0.0000000), wk =   0.0028490
        k(  197) = (   0.0400000   0.0230940   0.0000000), wk =   0.0028490
        k(  198) = (   0.0300000   0.0173205   0.0000000), wk =   0.0028490
        k(  199) = (   0.0200000   0.0115470   0.0000000), wk =   0.0028490
        k(  200) = (   0.0100000   0.0057735   0.0000000), wk =   0.0028490
        k(  201) = (   0.0000000   0.0000000   0.0000000), wk =   0.0028490
        k(  202) = (   0.0000000   0.0000000   0.0050085), wk =   0.0028490
        k(  203) = (   0.0000000   0.0000000   0.0100171), wk =   0.0028490
        k(  204) = (   0.0000000   0.0000000   0.0150256), wk =   0.0028490
        k(  205) = (   0.0000000   0.0000000   0.0200342), wk =   0.0028490
        k(  206) = (   0.0000000   0.0000000   0.0250427), wk =   0.0028490
        k(  207) = (   0.0000000   0.0000000   0.0300513), wk =   0.0028490
        k(  208) = (   0.0000000   0.0000000   0.0350598), wk =   0.0028490
        k(  209) = (   0.0000000   0.0000000   0.0400684), wk =   0.0028490
        k(  210) = (   0.0000000   0.0000000   0.0450769), wk =   0.0028490
        k(  211) = (   0.0000000   0.0000000   0.0500855), wk =   0.0028490
        k(  212) = (   0.0000000   0.0000000   0.0550940), wk =   0.0028490
        k(  213) = (   0.0000000   0.0000000   0.0601026), wk =   0.0028490
        k(  214) = (   0.0000000   0.0000000   0.0651111), wk =   0.0028490
        k(  215) = (   0.0000000   0.0000000   0.0701197), wk =   0.0028490
        k(  216) = (   0.0000000   0.0000000   0.0751282), wk =   0.0028490
        k(  217) = (   0.0000000   0.0000000   0.0801368), wk =   0.0028490
        k(  218) = (   0.0000000   0.0000000   0.0851453), wk =   0.0028490
        k(  219) = (   0.0000000   0.0000000   0.0901539), wk =   0.0028490
        k(  220) = (   0.0000000   0.0000000   0.0951624), wk =   0.0028490
        k(  221) = (   0.0000000   0.0000000   0.1001710), wk =   0.0028490
        k(  222) = (   0.0000000   0.0000000   0.1051795), wk =   0.0028490
        k(  223) = (   0.0000000   0.0000000   0.1101881), wk =   0.0028490
        k(  224) = (   0.0000000   0.0000000   0.1151966), wk =   0.0028490
        k(  225) = (   0.0000000   0.0000000   0.1202052), wk =   0.0028490
        k(  226) = (   0.0000000   0.0000000   0.1252137), wk =   0.0028490
        k(  227) = (   0.0000000   0.0000000   0.1302223), wk =   0.0028490
        k(  228) = (   0.0000000   0.0000000   0.1352308), wk =   0.0028490
        k(  229) = (   0.0000000   0.0000000   0.1402394), wk =   0.0028490
        k(  230) = (   0.0000000   0.0000000   0.1452479), wk =   0.0028490
        k(  231) = (   0.0000000   0.0000000   0.1502565), wk =   0.0028490
        k(  232) = (   0.0000000   0.0000000   0.1552650), wk =   0.0028490
        k(  233) = (   0.0000000   0.0000000   0.1602736), wk =   0.0028490
        k(  234) = (   0.0000000   0.0000000   0.1652821), wk =   0.0028490
        k(  235) = (   0.0000000   0.0000000   0.1702907), wk =   0.0028490
        k(  236) = (   0.0000000   0.0000000   0.1752992), wk =   0.0028490
        k(  237) = (   0.0000000   0.0000000   0.1803078), wk =   0.0028490
        k(  238) = (   0.0000000   0.0000000   0.1853163), wk =   0.0028490
        k(  239) = (   0.0000000   0.0000000   0.1903249), wk =   0.0028490
        k(  240) = (   0.0000000   0.0000000   0.1953334), wk =   0.0028490
        k(  241) = (   0.0000000   0.0000000   0.2003420), wk =   0.0028490
        k(  242) = (   0.0000000   0.0000000   0.2053505), wk =   0.0028490
        k(  243) = (   0.0000000   0.0000000   0.2103591), wk =   0.0028490
        k(  244) = (   0.0000000   0.0000000   0.2153676), wk =   0.0028490
        k(  245) = (   0.0000000   0.0000000   0.2203762), wk =   0.0028490
        k(  246) = (   0.0000000   0.0000000   0.2253847), wk =   0.0028490
        k(  247) = (   0.0000000   0.0000000   0.2303933), wk =   0.0028490
        k(  248) = (   0.0000000   0.0000000   0.2354018), wk =   0.0028490
        k(  249) = (   0.0000000   0.0000000   0.2404104), wk =   0.0028490
        k(  250) = (   0.0000000   0.0000000   0.2454189), wk =   0.0028490
        k(  251) = (   0.0000000   0.0000000   0.2504275), wk =   0.0028490
        k(  252) = (   0.0100000   0.0057735   0.2504275), wk =   0.0028490
        k(  253) = (   0.0200000   0.0115470   0.2504275), wk =   0.0028490
        k(  254) = (   0.0300000   0.0173205   0.2504275), wk =   0.0028490
        k(  255) = (   0.0400000   0.0230940   0.2504275), wk =   0.0028490
        k(  256) = (   0.0500000   0.0288675   0.2504275), wk =   0.0028490
        k(  257) = (   0.0600000   0.0346410   0.2504275), wk =   0.0028490
        k(  258) = (   0.0700000   0.0404145   0.2504275), wk =   0.0028490
        k(  259) = (   0.0800000   0.0461880   0.2504275), wk =   0.0028490
        k(  260) = (   0.0900000   0.0519615   0.2504275), wk =   0.0028490
        k(  261) = (   0.1000000   0.0577350   0.2504275), wk =   0.0028490
        k(  262) = (   0.1100000   0.0635085   0.2504275), wk =   0.0028490
        k(  263) = (   0.1200000   0.0692820   0.2504275), wk =   0.0028490
        k(  264) = (   0.1300000   0.0750555   0.2504275), wk =   0.0028490
        k(  265) = (   0.1400000   0.0808290   0.2504275), wk =   0.0028490
        k(  266) = (   0.1500000   0.0866025   0.2504275), wk =   0.0028490
        k(  267) = (   0.1600000   0.0923760   0.2504275), wk =   0.0028490
        k(  268) = (   0.1700000   0.0981495   0.2504275), wk =   0.0028490
        k(  269) = (   0.1800000   0.1039230   0.2504275), wk =   0.0028490
        k(  270) = (   0.1900000   0.1096966   0.2504275), wk =   0.0028490
        k(  271) = (   0.2000000   0.1154701   0.2504275), wk =   0.0028490
        k(  272) = (   0.2100000   0.1212436   0.2504275), wk =   0.0028490
        k(  273) = (   0.2200000   0.1270171   0.2504275), wk =   0.0028490
        k(  274) = (   0.2300000   0.1327906   0.2504275), wk =   0.0028490
        k(  275) = (   0.2400000   0.1385641   0.2504275), wk =   0.0028490
        k(  276) = (   0.2500000   0.1443376   0.2504275), wk =   0.0028490
        k(  277) = (   0.2600000   0.1501111   0.2504275), wk =   0.0028490
        k(  278) = (   0.2700000   0.1558846   0.2504275), wk =   0.0028490
        k(  279) = (   0.2800000   0.1616581   0.2504275), wk =   0.0028490
        k(  280) = (   0.2900000   0.1674316   0.2504275), wk =   0.0028490
        k(  281) = (   0.3000000   0.1732051   0.2504275), wk =   0.0028490
        k(  282) = (   0.3100000   0.1789786   0.2504275), wk =   0.0028490
        k(  283) = (   0.3200000   0.1847521   0.2504275), wk =   0.0028490
        k(  284) = (   0.3300000   0.1905256   0.2504275), wk =   0.0028490
        k(  285) = (   0.3400000   0.1962991   0.2504275), wk =   0.0028490
        k(  286) = (   0.3500000   0.2020726   0.2504275), wk =   0.0028490
        k(  287) = (   0.3600000   0.2078461   0.2504275), wk =   0.0028490
        k(  288) = (   0.3700000   0.2136196   0.2504275), wk =   0.0028490
        k(  289) = (   0.3800000   0.2193931   0.2504275), wk =   0.0028490
        k(  290) = (   0.3900000   0.2251666   0.2504275), wk =   0.0028490
        k(  291) = (   0.4000000   0.2309401   0.2504275), wk =   0.0028490
        k(  292) = (   0.4100000   0.2367136   0.2504275), wk =   0.0028490
        k(  293) = (   0.4200000   0.2424871   0.2504275), wk =   0.0028490
        k(  294) = (   0.4300000   0.2482606   0.2504275), wk =   0.0028490
        k(  295) = (   0.4400000   0.2540341   0.2504275), wk =   0.0028490
        k(  296) = (   0.4500000   0.2598076   0.2504275), wk =   0.0028490
        k(  297) = (   0.4600000   0.2655811   0.2504275), wk =   0.0028490
        k(  298) = (   0.4700000   0.2713546   0.2504275), wk =   0.0028490
        k(  299) = (   0.4800000   0.2771281   0.2504275), wk =   0.0028490
        k(  300) = (   0.4900000   0.2829016   0.2504275), wk =   0.0028490
        k(  301) = (   0.5000000   0.2886751   0.2504275), wk =   0.0028490
        k(  302) = (   0.4966660   0.2944475   0.2504275), wk =   0.0028490
        k(  303) = (   0.4933320   0.3002198   0.2504275), wk =   0.0028490
        k(  304) = (   0.4899980   0.3059922   0.2504275), wk =   0.0028490
        k(  305) = (   0.4866640   0.3117645   0.2504275), wk =   0.0028490
        k(  306) = (   0.4833300   0.3175369   0.2504275), wk =   0.0028490
        k(  307) = (   0.4799960   0.3233092   0.2504275), wk =   0.0028490
        k(  308) = (   0.4766620   0.3290816   0.2504275), wk =   0.0028490
        k(  309) = (   0.4733280   0.3348539   0.2504275), wk =   0.0028490
        k(  310) = (   0.4699940   0.3406263   0.2504275), wk =   0.0028490
        k(  311) = (   0.4666600   0.3463986   0.2504275), wk =   0.0028490
        k(  312) = (   0.4633260   0.3521710   0.2504275), wk =   0.0028490
        k(  313) = (   0.4599920   0.3579433   0.2504275), wk =   0.0028490
        k(  314) = (   0.4566580   0.3637157   0.2504275), wk =   0.0028490
        k(  315) = (   0.4533240   0.3694880   0.2504275), wk =   0.0028490
        k(  316) = (   0.4499900   0.3752604   0.2504275), wk =   0.0028490
        k(  317) = (   0.4466560   0.3810327   0.2504275), wk =   0.0028490
        k(  318) = (   0.4433220   0.3868051   0.2504275), wk =   0.0028490
        k(  319) = (   0.4399880   0.3925774   0.2504275), wk =   0.0028490
        k(  320) = (   0.4366540   0.3983497   0.2504275), wk =   0.0028490
        k(  321) = (   0.4333200   0.4041221   0.2504275), wk =   0.0028490
        k(  322) = (   0.4299860   0.4098944   0.2504275), wk =   0.0028490
        k(  323) = (   0.4266520   0.4156668   0.2504275), wk =   0.0028490
        k(  324) = (   0.4233180   0.4214391   0.2504275), wk =   0.0028490
        k(  325) = (   0.4199840   0.4272115   0.2504275), wk =   0.0028490
        k(  326) = (   0.4166500   0.4329838   0.2504275), wk =   0.0028490
        k(  327) = (   0.4133160   0.4387562   0.2504275), wk =   0.0028490
        k(  328) = (   0.4099820   0.4445285   0.2504275), wk =   0.0028490
        k(  329) = (   0.4066480   0.4503009   0.2504275), wk =   0.0028490
        k(  330) = (   0.4033140   0.4560732   0.2504275), wk =   0.0028490
        k(  331) = (   0.3999800   0.4618456   0.2504275), wk =   0.0028490
        k(  332) = (   0.3966460   0.4676179   0.2504275), wk =   0.0028490
        k(  333) = (   0.3933120   0.4733903   0.2504275), wk =   0.0028490
        k(  334) = (   0.3899780   0.4791626   0.2504275), wk =   0.0028490
        k(  335) = (   0.3866440   0.4849350   0.2504275), wk =   0.0028490
        k(  336) = (   0.3833100   0.4907073   0.2504275), wk =   0.0028490
        k(  337) = (   0.3799760   0.4964797   0.2504275), wk =   0.0028490
        k(  338) = (   0.3766420   0.5022520   0.2504275), wk =   0.0028490
        k(  339) = (   0.3733080   0.5080244   0.2504275), wk =   0.0028490
        k(  340) = (   0.3699740   0.5137967   0.2504275), wk =   0.0028490
        k(  341) = (   0.3666400   0.5195691   0.2504275), wk =   0.0028490
        k(  342) = (   0.3633060   0.5253414   0.2504275), wk =   0.0028490
        k(  343) = (   0.3599720   0.5311138   0.2504275), wk =   0.0028490
        k(  344) = (   0.3566380   0.5368861   0.2504275), wk =   0.0028490
        k(  345) = (   0.3533040   0.5426584   0.2504275), wk =   0.0028490
        k(  346) = (   0.3499700   0.5484308   0.2504275), wk =   0.0028490
        k(  347) = (   0.3466360   0.5542031   0.2504275), wk =   0.0028490
        k(  348) = (   0.3433020   0.5599755   0.2504275), wk =   0.0028490
        k(  349) = (   0.3399680   0.5657478   0.2504275), wk =   0.0028490
        k(  350) = (   0.3366340   0.5715202   0.2504275), wk =   0.0028490
        k(  351) = (   0.3333000   0.5772925   0.2504275), wk =   0.0028490

                       cryst. coord.
        k(    1) = (   0.5000000  -0.0000000   0.0000000), wk =   0.0028490
        k(    2) = (   0.4966660   0.0066660   0.0000000), wk =   0.0028490
        k(    3) = (   0.4933320   0.0133320   0.0000000), wk =   0.0028490
        k(    4) = (   0.4899980   0.0199980   0.0000000), wk =   0.0028490
        k(    5) = (   0.4866640   0.0266640   0.0000000), wk =   0.0028490
        k(    6) = (   0.4833300   0.0333300   0.0000000), wk =   0.0028490
        k(    7) = (   0.4799960   0.0399960   0.0000000), wk =   0.0028490
        k(    8) = (   0.4766620   0.0466620   0.0000000), wk =   0.0028490
        k(    9) = (   0.4733280   0.0533280   0.0000000), wk =   0.0028490
        k(   10) = (   0.4699940   0.0599940   0.0000000), wk =   0.0028490
        k(   11) = (   0.4666600   0.0666600   0.0000000), wk =   0.0028490
        k(   12) = (   0.4633260   0.0733260   0.0000000), wk =   0.0028490
        k(   13) = (   0.4599920   0.0799920   0.0000000), wk =   0.0028490
        k(   14) = (   0.4566580   0.0866580   0.0000000), wk =   0.0028490
        k(   15) = (   0.4533240   0.0933240   0.0000000), wk =   0.0028490
        k(   16) = (   0.4499900   0.0999900   0.0000000), wk =   0.0028490
        k(   17) = (   0.4466560   0.1066560   0.0000000), wk =   0.0028490
        k(   18) = (   0.4433220   0.1133220   0.0000000), wk =   0.0028490
        k(   19) = (   0.4399880   0.1199880   0.0000000), wk =   0.0028490
        k(   20) = (   0.4366540   0.1266540   0.0000000), wk =   0.0028490
        k(   21) = (   0.4333200   0.1333200   0.0000000), wk =   0.0028490
        k(   22) = (   0.4299860   0.1399860   0.0000000), wk =   0.0028490
        k(   23) = (   0.4266520   0.1466520   0.0000000), wk =   0.0028490
        k(   24) = (   0.4233180   0.1533180   0.0000000), wk =   0.0028490
        k(   25) = (   0.4199840   0.1599840   0.0000000), wk =   0.0028490
        k(   26) = (   0.4166500   0.1666500   0.0000000), wk =   0.0028490
        k(   27) = (   0.4133160   0.1733160   0.0000000), wk =   0.0028490
        k(   28) = (   0.4099820   0.1799820   0.0000000), wk =   0.0028490
        k(   29) = (   0.4066480   0.1866480   0.0000000), wk =   0.0028490
        k(   30) = (   0.4033140   0.1933140   0.0000000), wk =   0.0028490
        k(   31) = (   0.3999800   0.1999800   0.0000000), wk =   0.0028490
        k(   32) = (   0.3966460   0.2066460   0.0000000), wk =   0.0028490
        k(   33) = (   0.3933120   0.2133120   0.0000000), wk =   0.0028490
        k(   34) = (   0.3899780   0.2199780   0.0000000), wk =   0.0028490
        k(   35) = (   0.3866440   0.2266440   0.0000000), wk =   0.0028490
        k(   36) = (   0.3833100   0.2333100   0.0000000), wk =   0.0028490
        k(   37) = (   0.3799760   0.2399760   0.0000000), wk =   0.0028490
        k(   38) = (   0.3766420   0.2466420   0.0000000), wk =   0.0028490
        k(   39) = (   0.3733080   0.2533080   0.0000000), wk =   0.0028490
        k(   40) = (   0.3699740   0.2599740   0.0000000), wk =   0.0028490
        k(   41) = (   0.3666400   0.2666400   0.0000000), wk =   0.0028490
        k(   42) = (   0.3633060   0.2733060   0.0000000), wk =   0.0028490
        k(   43) = (   0.3599720   0.2799720   0.0000000), wk =   0.0028490
        k(   44) = (   0.3566380   0.2866380   0.0000000), wk =   0.0028490
        k(   45) = (   0.3533040   0.2933040   0.0000000), wk =   0.0028490
        k(   46) = (   0.3499700   0.2999700   0.0000000), wk =   0.0028490
        k(   47) = (   0.3466360   0.3066360   0.0000000), wk =   0.0028490
        k(   48) = (   0.3433020   0.3133020   0.0000000), wk =   0.0028490
        k(   49) = (   0.3399680   0.3199680   0.0000000), wk =   0.0028490
        k(   50) = (   0.3366340   0.3266340   0.0000000), wk =   0.0028490
        k(   51) = (   0.3333000   0.3333000   0.0000000), wk =   0.0028490
        k(   52) = (   0.3266340   0.3266340   0.0000000), wk =   0.0028490
        k(   53) = (   0.3199680   0.3199680   0.0000000), wk =   0.0028490
        k(   54) = (   0.3133020   0.3133020   0.0000000), wk =   0.0028490
        k(   55) = (   0.3066360   0.3066360   0.0000000), wk =   0.0028490
        k(   56) = (   0.2999700   0.2999700   0.0000000), wk =   0.0028490
        k(   57) = (   0.2933040   0.2933040   0.0000000), wk =   0.0028490
        k(   58) = (   0.2866380   0.2866380   0.0000000), wk =   0.0028490
        k(   59) = (   0.2799720   0.2799720   0.0000000), wk =   0.0028490
        k(   60) = (   0.2733060   0.2733060   0.0000000), wk =   0.0028490
        k(   61) = (   0.2666400   0.2666400   0.0000000), wk =   0.0028490
        k(   62) = (   0.2599740   0.2599740   0.0000000), wk =   0.0028490
        k(   63) = (   0.2533080   0.2533080   0.0000000), wk =   0.0028490
        k(   64) = (   0.2466420   0.2466420   0.0000000), wk =   0.0028490
        k(   65) = (   0.2399760   0.2399760   0.0000000), wk =   0.0028490
        k(   66) = (   0.2333100   0.2333100   0.0000000), wk =   0.0028490
        k(   67) = (   0.2266440   0.2266440   0.0000000), wk =   0.0028490
        k(   68) = (   0.2199780   0.2199780   0.0000000), wk =   0.0028490
        k(   69) = (   0.2133120   0.2133120   0.0000000), wk =   0.0028490
        k(   70) = (   0.2066460   0.2066460   0.0000000), wk =   0.0028490
        k(   71) = (   0.1999800   0.1999800   0.0000000), wk =   0.0028490
        k(   72) = (   0.1933140   0.1933140   0.0000000), wk =   0.0028490
        k(   73) = (   0.1866480   0.1866480   0.0000000), wk =   0.0028490
        k(   74) = (   0.1799820   0.1799820   0.0000000), wk =   0.0028490
        k(   75) = (   0.1733160   0.1733160   0.0000000), wk =   0.0028490
        k(   76) = (   0.1666500   0.1666500   0.0000000), wk =   0.0028490
        k(   77) = (   0.1599840   0.1599840   0.0000000), wk =   0.0028490
        k(   78) = (   0.1533180   0.1533180   0.0000000), wk =   0.0028490
        k(   79) = (   0.1466520   0.1466520   0.0000000), wk =   0.0028490
        k(   80) = (   0.1399860   0.1399860   0.0000000), wk =   0.0028490
        k(   81) = (   0.1333200   0.1333200   0.0000000), wk =   0.0028490
        k(   82) = (   0.1266540   0.1266540   0.0000000), wk =   0.0028490
        k(   83) = (   0.1199880   0.1199880   0.0000000), wk =   0.0028490
        k(   84) = (   0.1133220   0.1133220   0.0000000), wk =   0.0028490
        k(   85) = (   0.1066560   0.1066560   0.0000000), wk =   0.0028490
        k(   86) = (   0.0999900   0.0999900   0.0000000), wk =   0.0028490
        k(   87) = (   0.0933240   0.0933240   0.0000000), wk =   0.0028490
        k(   88) = (   0.0866580   0.0866580   0.0000000), wk =   0.0028490
        k(   89) = (   0.0799920   0.0799920   0.0000000), wk =   0.0028490
        k(   90) = (   0.0733260   0.0733260   0.0000000), wk =   0.0028490
        k(   91) = (   0.0666600   0.0666600   0.0000000), wk =   0.0028490
        k(   92) = (   0.0599940   0.0599940   0.0000000), wk =   0.0028490
        k(   93) = (   0.0533280   0.0533280   0.0000000), wk =   0.0028490
        k(   94) = (   0.0466620   0.0466620   0.0000000), wk =   0.0028490
        k(   95) = (   0.0399960   0.0399960   0.0000000), wk =   0.0028490
        k(   96) = (   0.0333300   0.0333300   0.0000000), wk =   0.0028490
        k(   97) = (   0.0266640   0.0266640   0.0000000), wk =   0.0028490
        k(   98) = (   0.0199980   0.0199980   0.0000000), wk =   0.0028490
        k(   99) = (   0.0133320   0.0133320   0.0000000), wk =   0.0028490
        k(  100) = (   0.0066660   0.0066660   0.0000000), wk =   0.0028490
        k(  101) = (   0.0000000   0.0000000   0.0000000), wk =   0.0028490
        k(  102) = (   0.0100000  -0.0000000   0.0000000), wk =   0.0028490
        k(  103) = (   0.0200000  -0.0000000   0.0000000), wk =   0.0028490
        k(  104) = (   0.0300000  -0.0000000   0.0000000), wk =   0.0028490
        k(  105) = (   0.0400000  -0.0000000   0.0000000), wk =   0.0028490
        k(  106) = (   0.0500000   0.0000000   0.0000000), wk =   0.0028490
        k(  107) = (   0.0600000  -0.0000000   0.0000000), wk =   0.0028490
        k(  108) = (   0.0700000   0.0000000   0.0000000), wk =   0.0028490
        k(  109) = (   0.0800000  -0.0000000   0.0000000), wk =   0.0028490
        k(  110) = (   0.0900000  -0.0000000   0.0000000), wk =   0.0028490
        k(  111) = (   0.1000000   0.0000000   0.0000000), wk =   0.0028490
        k(  112) = (   0.1100000  -0.0000000   0.0000000), wk =   0.0028490
        k(  113) = (   0.1200000  -0.0000000   0.0000000), wk =   0.0028490
        k(  114) = (   0.1300000   0.0000000   0.0000000), wk =   0.0028490
        k(  115) = (   0.1400000   0.0000000   0.0000000), wk =   0.0028490
        k(  116) = (   0.1500000  -0.0000000   0.0000000), wk =   0.0028490
        k(  117) = (   0.1600000  -0.0000000   0.0000000), wk =   0.0028490
        k(  118) = (   0.1700000  -0.0000000   0.0000000), wk =   0.0028490
        k(  119) = (   0.1800000  -0.0000000   0.0000000), wk =   0.0028490
        k(  120) = (   0.1900000  -0.0000000   0.0000000), wk =   0.0028490
        k(  121) = (   0.2000000   0.0000000   0.0000000), wk =   0.0028490
        k(  122) = (   0.2100000  -0.0000000   0.0000000), wk =   0.0028490
        k(  123) = (   0.2200000  -0.0000000   0.0000000), wk =   0.0028490
        k(  124) = (   0.2300000  -0.0000000   0.0000000), wk =   0.0028490
        k(  125) = (   0.2400000  -0.0000000   0.0000000), wk =   0.0028490
        k(  126) = (   0.2500000  -0.0000000   0.0000000), wk =   0.0028490
        k(  127) = (   0.2600000   0.0000000   0.0000000), wk =   0.0028490
        k(  128) = (   0.2700000   0.0000000   0.0000000), wk =   0.0028490
        k(  129) = (   0.2800000   0.0000000   0.0000000), wk =   0.0028490
        k(  130) = (   0.2900000  -0.0000000   0.0000000), wk =   0.0028490
        k(  131) = (   0.3000000  -0.0000000   0.0000000), wk =   0.0028490
        k(  132) = (   0.3100000  -0.0000000   0.0000000), wk =   0.0028490
        k(  133) = (   0.3200000  -0.0000000   0.0000000), wk =   0.0028490
        k(  134) = (   0.3300000  -0.0000000   0.0000000), wk =   0.0028490
        k(  135) = (   0.3400000  -0.0000000   0.0000000), wk =   0.0028490
        k(  136) = (   0.3500000  -0.0000000   0.0000000), wk =   0.0028490
        k(  137) = (   0.3600000  -0.0000000   0.0000000), wk =   0.0028490
        k(  138) = (   0.3700000  -0.0000000   0.0000000), wk =   0.0028490
        k(  139) = (   0.3800000  -0.0000000   0.0000000), wk =   0.0028490
        k(  140) = (   0.3900000  -0.0000000   0.0000000), wk =   0.0028490
        k(  141) = (   0.4000000   0.0000000   0.0000000), wk =   0.0028490
        k(  142) = (   0.4100000  -0.0000000   0.0000000), wk =   0.0028490
        k(  143) = (   0.4200000  -0.0000000   0.0000000), wk =   0.0028490
        k(  144) = (   0.4300000  -0.0000000   0.0000000), wk =   0.0028490
        k(  145) = (   0.4400000  -0.0000000   0.0000000), wk =   0.0028490
        k(  146) = (   0.4500000  -0.0000000   0.0000000), wk =   0.0028490
        k(  147) = (   0.4600000  -0.0000000   0.0000000), wk =   0.0028490
        k(  148) = (   0.4700000  -0.0000000   0.0000000), wk =   0.0028490
        k(  149) = (   0.4800000  -0.0000000   0.0000000), wk =   0.0028490
        k(  150) = (   0.4900000  -0.0000000   0.0000000), wk =   0.0028490
        k(  151) = (   0.5000000  -0.0000000   0.0000000), wk =   0.0028490
        k(  152) = (   0.4900000  -0.0000000   0.0000000), wk =   0.0028490
        k(  153) = (   0.4800000  -0.0000000   0.0000000), wk =   0.0028490
        k(  154) = (   0.4700000  -0.0000000   0.0000000), wk =   0.0028490
        k(  155) = (   0.4600000  -0.0000000   0.0000000), wk =   0.0028490
        k(  156) = (   0.4500000  -0.0000000   0.0000000), wk =   0.0028490
        k(  157) = (   0.4400000  -0.0000000   0.0000000), wk =   0.0028490
        k(  158) = (   0.4300000  -0.0000000   0.0000000), wk =   0.0028490
        k(  159) = (   0.4200000  -0.0000000   0.0000000), wk =   0.0028490
        k(  160) = (   0.4100000  -0.0000000   0.0000000), wk =   0.0028490
        k(  161) = (   0.4000000   0.0000000   0.0000000), wk =   0.0028490
        k(  162) = (   0.3900000  -0.0000000   0.0000000), wk =   0.0028490
        k(  163) = (   0.3800000  -0.0000000   0.0000000), wk =   0.0028490
        k(  164) = (   0.3700000  -0.0000000   0.0000000), wk =   0.0028490
        k(  165) = (   0.3600000  -0.0000000   0.0000000), wk =   0.0028490
        k(  166) = (   0.3500000  -0.0000000   0.0000000), wk =   0.0028490
        k(  167) = (   0.3400000  -0.0000000   0.0000000), wk =   0.0028490
        k(  168) = (   0.3300000  -0.0000000   0.0000000), wk =   0.0028490
        k(  169) = (   0.3200000  -0.0000000   0.0000000), wk =   0.0028490
        k(  170) = (   0.3100000  -0.0000000   0.0000000), wk =   0.0028490
        k(  171) = (   0.3000000  -0.0000000   0.0000000), wk =   0.0028490
        k(  172) = (   0.2900000  -0.0000000   0.0000000), wk =   0.0028490
        k(  173) = (   0.2800000   0.0000000   0.0000000), wk =   0.0028490
        k(  174) = (   0.2700000   0.0000000   0.0000000), wk =   0.0028490
        k(  175) = (   0.2600000   0.0000000   0.0000000), wk =   0.0028490
        k(  176) = (   0.2500000  -0.0000000   0.0000000), wk =   0.0028490
        k(  177) = (   0.2400000  -0.0000000   0.0000000), wk =   0.0028490
        k(  178) = (   0.2300000  -0.0000000   0.0000000), wk =   0.0028490
        k(  179) = (   0.2200000  -0.0000000   0.0000000), wk =   0.0028490
        k(  180) = (   0.2100000  -0.0000000   0.0000000), wk =   0.0028490
        k(  181) = (   0.2000000   0.0000000   0.0000000), wk =   0.0028490
        k(  182) = (   0.1900000  -0.0000000   0.0000000), wk =   0.0028490
        k(  183) = (   0.1800000  -0.0000000   0.0000000), wk =   0.0028490
        k(  184) = (   0.1700000  -0.0000000   0.0000000), wk =   0.0028490
        k(  185) = (   0.1600000  -0.0000000   0.0000000), wk =   0.0028490
        k(  186) = (   0.1500000  -0.0000000   0.0000000), wk =   0.0028490
        k(  187) = (   0.1400000   0.0000000   0.0000000), wk =   0.0028490
        k(  188) = (   0.1300000   0.0000000   0.0000000), wk =   0.0028490
        k(  189) = (   0.1200000  -0.0000000   0.0000000), wk =   0.0028490
        k(  190) = (   0.1100000  -0.0000000   0.0000000), wk =   0.0028490
        k(  191) = (   0.1000000  -0.0000000   0.0000000), wk =   0.0028490
        k(  192) = (   0.0900000  -0.0000000   0.0000000), wk =   0.0028490
        k(  193) = (   0.0800000  -0.0000000   0.0000000), wk =   0.0028490
        k(  194) = (   0.0700000   0.0000000   0.0000000), wk =   0.0028490
        k(  195) = (   0.0600000  -0.0000000   0.0000000), wk =   0.0028490
        k(  196) = (   0.0500000  -0.0000000   0.0000000), wk =   0.0028490
        k(  197) = (   0.0400000  -0.0000000   0.0000000), wk =   0.0028490
        k(  198) = (   0.0300000  -0.0000000   0.0000000), wk =   0.0028490
        k(  199) = (   0.0200000  -0.0000000   0.0000000), wk =   0.0028490
        k(  200) = (   0.0100000  -0.0000000   0.0000000), wk =   0.0028490
        k(  201) = (   0.0000000   0.0000000   0.0000000), wk =   0.0028490
        k(  202) = (   0.0000000   0.0000000   0.0100000), wk =   0.0028490
        k(  203) = (   0.0000000   0.0000000   0.0200000), wk =   0.0028490
        k(  204) = (   0.0000000   0.0000000   0.0300000), wk =   0.0028490
        k(  205) = (   0.0000000   0.0000000   0.0400000), wk =   0.0028490
        k(  206) = (   0.0000000   0.0000000   0.0500000), wk =   0.0028490
        k(  207) = (   0.0000000   0.0000000   0.0600000), wk =   0.0028490
        k(  208) = (   0.0000000   0.0000000   0.0700000), wk =   0.0028490
        k(  209) = (   0.0000000   0.0000000   0.0800000), wk =   0.0028490
        k(  210) = (   0.0000000   0.0000000   0.0900000), wk =   0.0028490
        k(  211) = (   0.0000000   0.0000000   0.1000000), wk =   0.0028490
        k(  212) = (   0.0000000   0.0000000   0.1100000), wk =   0.0028490
        k(  213) = (   0.0000000   0.0000000   0.1200000), wk =   0.0028490
        k(  214) = (   0.0000000   0.0000000   0.1300000), wk =   0.0028490
        k(  215) = (   0.0000000   0.0000000   0.1400000), wk =   0.0028490
        k(  216) = (   0.0000000   0.0000000   0.1500000), wk =   0.0028490
        k(  217) = (   0.0000000   0.0000000   0.1600000), wk =   0.0028490
        k(  218) = (   0.0000000   0.0000000   0.1700000), wk =   0.0028490
        k(  219) = (   0.0000000   0.0000000   0.1800000), wk =   0.0028490
        k(  220) = (   0.0000000   0.0000000   0.1900000), wk =   0.0028490
        k(  221) = (   0.0000000   0.0000000   0.2000000), wk =   0.0028490
        k(  222) = (   0.0000000   0.0000000   0.2100000), wk =   0.0028490
        k(  223) = (   0.0000000   0.0000000   0.2200000), wk =   0.0028490
        k(  224) = (   0.0000000   0.0000000   0.2300000), wk =   0.0028490
        k(  225) = (   0.0000000   0.0000000   0.2400000), wk =   0.0028490
        k(  226) = (   0.0000000   0.0000000   0.2500000), wk =   0.0028490
        k(  227) = (   0.0000000   0.0000000   0.2600000), wk =   0.0028490
        k(  228) = (   0.0000000   0.0000000   0.2700000), wk =   0.0028490
        k(  229) = (   0.0000000   0.0000000   0.2800000), wk =   0.0028490
        k(  230) = (   0.0000000   0.0000000   0.2900000), wk =   0.0028490
        k(  231) = (   0.0000000   0.0000000   0.3000000), wk =   0.0028490
        k(  232) = (   0.0000000   0.0000000   0.3100000), wk =   0.0028490
        k(  233) = (   0.0000000   0.0000000   0.3200000), wk =   0.0028490
        k(  234) = (   0.0000000   0.0000000   0.3300000), wk =   0.0028490
        k(  235) = (   0.0000000   0.0000000   0.3400000), wk =   0.0028490
        k(  236) = (   0.0000000   0.0000000   0.3500000), wk =   0.0028490
        k(  237) = (   0.0000000   0.0000000   0.3600000), wk =   0.0028490
        k(  238) = (   0.0000000   0.0000000   0.3700000), wk =   0.0028490
        k(  239) = (   0.0000000   0.0000000   0.3800000), wk =   0.0028490
        k(  240) = (   0.0000000   0.0000000   0.3900000), wk =   0.0028490
        k(  241) = (   0.0000000   0.0000000   0.4000000), wk =   0.0028490
        k(  242) = (   0.0000000   0.0000000   0.4100000), wk =   0.0028490
        k(  243) = (   0.0000000   0.0000000   0.4200000), wk =   0.0028490
        k(  244) = (   0.0000000   0.0000000   0.4300000), wk =   0.0028490
        k(  245) = (   0.0000000   0.0000000   0.4400000), wk =   0.0028490
        k(  246) = (   0.0000000   0.0000000   0.4500000), wk =   0.0028490
        k(  247) = (   0.0000000   0.0000000   0.4600000), wk =   0.0028490
        k(  248) = (   0.0000000   0.0000000   0.4700000), wk =   0.0028490
        k(  249) = (   0.0000000   0.0000000   0.4800000), wk =   0.0028490
        k(  250) = (   0.0000000   0.0000000   0.4900000), wk =   0.0028490
        k(  251) = (   0.0000000   0.0000000   0.5000000), wk =   0.0028490
        k(  252) = (   0.0100000  -0.0000000   0.5000000), wk =   0.0028490
        k(  253) = (   0.0200000  -0.0000000   0.5000000), wk =   0.0028490
        k(  254) = (   0.0300000  -0.0000000   0.5000000), wk =   0.0028490
        k(  255) = (   0.0400000  -0.0000000   0.5000000), wk =   0.0028490
        k(  256) = (   0.0500000   0.0000000   0.5000000), wk =   0.0028490
        k(  257) = (   0.0600000  -0.0000000   0.5000000), wk =   0.0028490
        k(  258) = (   0.0700000   0.0000000   0.5000000), wk =   0.0028490
        k(  259) = (   0.0800000  -0.0000000   0.5000000), wk =   0.0028490
        k(  260) = (   0.0900000  -0.0000000   0.5000000), wk =   0.0028490
        k(  261) = (   0.1000000   0.0000000   0.5000000), wk =   0.0028490
        k(  262) = (   0.1100000  -0.0000000   0.5000000), wk =   0.0028490
        k(  263) = (   0.1200000  -0.0000000   0.5000000), wk =   0.0028490
        k(  264) = (   0.1300000   0.0000000   0.5000000), wk =   0.0028490
        k(  265) = (   0.1400000   0.0000000   0.5000000), wk =   0.0028490
        k(  266) = (   0.1500000  -0.0000000   0.5000000), wk =   0.0028490
        k(  267) = (   0.1600000  -0.0000000   0.5000000), wk =   0.0028490
        k(  268) = (   0.1700000  -0.0000000   0.5000000), wk =   0.0028490
        k(  269) = (   0.1800000  -0.0000000   0.5000000), wk =   0.0028490
        k(  270) = (   0.1900000  -0.0000000   0.5000000), wk =   0.0028490
        k(  271) = (   0.2000000   0.0000000   0.5000000), wk =   0.0028490
        k(  272) = (   0.2100000  -0.0000000   0.5000000), wk =   0.0028490
        k(  273) = (   0.2200000  -0.0000000   0.5000000), wk =   0.0028490
        k(  274) = (   0.2300000  -0.0000000   0.5000000), wk =   0.0028490
        k(  275) = (   0.2400000  -0.0000000   0.5000000), wk =   0.0028490
        k(  276) = (   0.2500000  -0.0000000   0.5000000), wk =   0.0028490
        k(  277) = (   0.2600000   0.0000000   0.5000000), wk =   0.0028490
        k(  278) = (   0.2700000   0.0000000   0.5000000), wk =   0.0028490
        k(  279) = (   0.2800000   0.0000000   0.5000000), wk =   0.0028490
        k(  280) = (   0.2900000  -0.0000000   0.5000000), wk =   0.0028490
        k(  281) = (   0.3000000  -0.0000000   0.5000000), wk =   0.0028490
        k(  282) = (   0.3100000  -0.0000000   0.5000000), wk =   0.0028490
        k(  283) = (   0.3200000  -0.0000000   0.5000000), wk =   0.0028490
        k(  284) = (   0.3300000  -0.0000000   0.5000000), wk =   0.0028490
        k(  285) = (   0.3400000  -0.0000000   0.5000000), wk =   0.0028490
        k(  286) = (   0.3500000  -0.0000000   0.5000000), wk =   0.0028490
        k(  287) = (   0.3600000  -0.0000000   0.5000000), wk =   0.0028490
        k(  288) = (   0.3700000  -0.0000000   0.5000000), wk =   0.0028490
        k(  289) = (   0.3800000  -0.0000000   0.5000000), wk =   0.0028490
        k(  290) = (   0.3900000  -0.0000000   0.5000000), wk =   0.0028490
        k(  291) = (   0.4000000   0.0000000   0.5000000), wk =   0.0028490
        k(  292) = (   0.4100000  -0.0000000   0.5000000), wk =   0.0028490
        k(  293) = (   0.4200000  -0.0000000   0.5000000), wk =   0.0028490
        k(  294) = (   0.4300000  -0.0000000   0.5000000), wk =   0.0028490
        k(  295) = (   0.4400000  -0.0000000   0.5000000), wk =   0.0028490
        k(  296) = (   0.4500000  -0.0000000   0.5000000), wk =   0.0028490
        k(  297) = (   0.4600000  -0.0000000   0.5000000), wk =   0.0028490
        k(  298) = (   0.4700000  -0.0000000   0.5000000), wk =   0.0028490
        k(  299) = (   0.4800000  -0.0000000   0.5000000), wk =   0.0028490
        k(  300) = (   0.4900000  -0.0000000   0.5000000), wk =   0.0028490
        k(  301) = (   0.5000000  -0.0000000   0.5000000), wk =   0.0028490
        k(  302) = (   0.4966660   0.0066660   0.5000000), wk =   0.0028490
        k(  303) = (   0.4933320   0.0133320   0.5000000), wk =   0.0028490
        k(  304) = (   0.4899980   0.0199980   0.5000000), wk =   0.0028490
        k(  305) = (   0.4866640   0.0266640   0.5000000), wk =   0.0028490
        k(  306) = (   0.4833300   0.0333300   0.5000000), wk =   0.0028490
        k(  307) = (   0.4799960   0.0399960   0.5000000), wk =   0.0028490
        k(  308) = (   0.4766620   0.0466620   0.5000000), wk =   0.0028490
        k(  309) = (   0.4733280   0.0533280   0.5000000), wk =   0.0028490
        k(  310) = (   0.4699940   0.0599940   0.5000000), wk =   0.0028490
        k(  311) = (   0.4666600   0.0666600   0.5000000), wk =   0.0028490
        k(  312) = (   0.4633260   0.0733260   0.5000000), wk =   0.0028490
        k(  313) = (   0.4599920   0.0799920   0.5000000), wk =   0.0028490
        k(  314) = (   0.4566580   0.0866580   0.5000000), wk =   0.0028490
        k(  315) = (   0.4533240   0.0933240   0.5000000), wk =   0.0028490
        k(  316) = (   0.4499900   0.0999900   0.5000000), wk =   0.0028490
        k(  317) = (   0.4466560   0.1066560   0.5000000), wk =   0.0028490
        k(  318) = (   0.4433220   0.1133220   0.5000000), wk =   0.0028490
        k(  319) = (   0.4399880   0.1199880   0.5000000), wk =   0.0028490
        k(  320) = (   0.4366540   0.1266540   0.5000000), wk =   0.0028490
        k(  321) = (   0.4333200   0.1333200   0.5000000), wk =   0.0028490
        k(  322) = (   0.4299860   0.1399860   0.5000000), wk =   0.0028490
        k(  323) = (   0.4266520   0.1466520   0.5000000), wk =   0.0028490
        k(  324) = (   0.4233180   0.1533180   0.5000000), wk =   0.0028490
        k(  325) = (   0.4199840   0.1599840   0.5000000), wk =   0.0028490
        k(  326) = (   0.4166500   0.1666500   0.5000000), wk =   0.0028490
        k(  327) = (   0.4133160   0.1733160   0.5000000), wk =   0.0028490
        k(  328) = (   0.4099820   0.1799820   0.5000000), wk =   0.0028490
        k(  329) = (   0.4066480   0.1866480   0.5000000), wk =   0.0028490
        k(  330) = (   0.4033140   0.1933140   0.5000000), wk =   0.0028490
        k(  331) = (   0.3999800   0.1999800   0.5000000), wk =   0.0028490
        k(  332) = (   0.3966460   0.2066460   0.5000000), wk =   0.0028490
        k(  333) = (   0.3933120   0.2133120   0.5000000), wk =   0.0028490
        k(  334) = (   0.3899780   0.2199780   0.5000000), wk =   0.0028490
        k(  335) = (   0.3866440   0.2266440   0.5000000), wk =   0.0028490
        k(  336) = (   0.3833100   0.2333100   0.5000000), wk =   0.0028490
        k(  337) = (   0.3799760   0.2399760   0.5000000), wk =   0.0028490
        k(  338) = (   0.3766420   0.2466420   0.5000000), wk =   0.0028490
        k(  339) = (   0.3733080   0.2533080   0.5000000), wk =   0.0028490
        k(  340) = (   0.3699740   0.2599740   0.5000000), wk =   0.0028490
        k(  341) = (   0.3666400   0.2666400   0.5000000), wk =   0.0028490
        k(  342) = (   0.3633060   0.2733060   0.5000000), wk =   0.0028490
        k(  343) = (   0.3599720   0.2799720   0.5000000), wk =   0.0028490
        k(  344) = (   0.3566380   0.2866380   0.5000000), wk =   0.0028490
        k(  345) = (   0.3533040   0.2933040   0.5000000), wk =   0.0028490
        k(  346) = (   0.3499700   0.2999700   0.5000000), wk =   0.0028490
        k(  347) = (   0.3466360   0.3066360   0.5000000), wk =   0.0028490
        k(  348) = (   0.3433020   0.3133020   0.5000000), wk =   0.0028490
        k(  349) = (   0.3399680   0.3199680   0.5000000), wk =   0.0028490
        k(  350) = (   0.3366340   0.3266340   0.5000000), wk =   0.0028490
        k(  351) = (   0.3333000   0.3333000   0.5000000), wk =   0.0028490

     Dense  grid:    33091 G-vectors     FFT dimensions: (  36,  36,  72)

     Dynamical RAM for                 wfc:       7.91 MB

     Dynamical RAM for     wfc (w. buffer):       7.91 MB

     Dynamical RAM for           str. fact:       1.01 MB

     Dynamical RAM for           local pot:       0.00 MB

     Dynamical RAM for          nlocal pot:      14.24 MB

     Dynamical RAM for                qrad:       2.69 MB

     Dynamical RAM for          rho,v,vnew:       7.30 MB

     Dynamical RAM for           G-vectors:       2.15 MB

     Dynamical RAM for          h,s,v(r/c):       0.29 MB

     Dynamical RAM for          <psi|beta>:       0.04 MB

     Dynamical RAM for                 psi:      15.83 MB

     Dynamical RAM for                hpsi:      15.83 MB

     Dynamical RAM for                spsi:      15.83 MB

     Dynamical RAM for      wfcinit/wfcrot:      15.86 MB

     Dynamical RAM for           addusdens:       4.16 MB

     Estimated static dynamical RAM per process >      41.09 MB

     Estimated max dynamical RAM per process >      88.91 MB

     Estimated total dynamical RAM >       2.60 GB

     Check: negative core charge=   -0.000005
     Generating pointlists ...
     new r_m :   0.3148 (alat units)  1.9610 (a.u.) for type    1
     new r_m :   0.3148 (alat units)  1.9610 (a.u.) for type    2

     The potential is recalculated from file :
     ./out/TiS.save/charge-density


     negative rho (up, down):  7.860E-04 7.860E-04
     Starting wfcs are   28 randomized atomic wfcs +   12 random wfcs

     Band Structure Calculation
     Davidson diagonalization with overlap

     Computing kpt #:     1  of    24 on this pool
     total cpu time spent up to now is       12.0 secs

     Computing kpt #:     2  of    24 on this pool
     total cpu time spent up to now is       19.2 secs

     Computing kpt #:     3  of    24 on this pool
     total cpu time spent up to now is       26.2 secs

     Computing kpt #:     4  of    24 on this pool
     total cpu time spent up to now is       34.9 secs

     Computing kpt #:     5  of    24 on this pool
     total cpu time spent up to now is       41.8 secs

     Computing kpt #:     6  of    24 on this pool
     total cpu time spent up to now is       48.6 secs

     Computing kpt #:     7  of    24 on this pool
     total cpu time spent up to now is       55.5 secs

     Computing kpt #:     8  of    24 on this pool
     total cpu time spent up to now is       62.3 secs

     Computing kpt #:     9  of    24 on this pool
     total cpu time spent up to now is       71.3 secs

     Computing kpt #:    10  of    24 on this pool
     total cpu time spent up to now is       78.1 secs

     Computing kpt #:    11  of    24 on this pool
     total cpu time spent up to now is       84.9 secs

     Computing kpt #:    12  of    24 on this pool
     total cpu time spent up to now is       91.6 secs

     Computing kpt #:    13  of    24 on this pool
     total cpu time spent up to now is       99.9 secs

     Computing kpt #:    14  of    24 on this pool
     total cpu time spent up to now is      109.1 secs

     Computing kpt #:    15  of    24 on this pool
     total cpu time spent up to now is      116.1 secs

     Computing kpt #:    16  of    24 on this pool
     total cpu time spent up to now is      123.1 secs

     Computing kpt #:    17  of    24 on this pool
     total cpu time spent up to now is      130.1 secs

     Computing kpt #:    18  of    24 on this pool
     total cpu time spent up to now is      137.2 secs

     Computing kpt #:    19  of    24 on this pool
     total cpu time spent up to now is      144.4 secs

     Computing kpt #:    20  of    24 on this pool
     total cpu time spent up to now is      151.5 secs

     Computing kpt #:    21  of    24 on this pool
     total cpu time spent up to now is      159.0 secs

     Computing kpt #:    22  of    24 on this pool
     total cpu time spent up to now is      166.4 secs

     Computing kpt #:    23  of    24 on this pool
     total cpu time spent up to now is      173.6 secs

     Computing kpt #:    24  of    24 on this pool
     total cpu time spent up to now is      180.5 secs

     ethr =  2.22E-12,  avg # of iterations = 43.1

     total cpu time spent up to now is      180.5 secs

     End of band structure calculation

 ------ SPIN UP ------------


          k = 0.5000 0.2887 0.0000 ( 13018 PWs)   bands (ev):

   -44.2181 -44.2083 -20.6099 -20.5947 -20.5808 -20.4688 -20.4667 -20.4521
    -0.8270  -0.4969   5.6616   7.0169   7.5262   8.2887   8.9196  10.1664
    11.2310  12.2284  13.7654  14.9161  15.0467  15.1223  15.1430  15.7591
    16.8358  17.0850  17.0951  18.6187  19.4235  19.5237  20.1420  20.6231
    23.8148  26.8477  26.9062  27.7003  28.4010  28.4479  28.5621  28.7351

          k = 0.4967 0.2944 0.0000 ( 13014 PWs)   bands (ev):

   -44.2181 -44.2083 -20.6099 -20.5947 -20.5808 -20.4688 -20.4668 -20.4522
    -0.8268  -0.4969   5.6621   7.0170   7.5265   8.2885   8.9190  10.1600
    11.2367  12.2289  13.7652  14.9150  15.0466  15.1220  15.1430  15.7595
    16.8355  17.0266  17.1558  18.6204  19.4197  19.5253  20.1437  20.6251
    23.8128  26.8339  26.9059  27.7136  28.3615  28.4420  28.5648  28.7743

          k = 0.4933 0.3002 0.0000 ( 13010 PWs)   bands (ev):

   -44.2181 -44.2083 -20.6098 -20.5946 -20.5807 -20.4688 -20.4670 -20.4523
    -0.8260  -0.4967   5.6637   7.0171   7.5275   8.2878   8.9171  10.1411
    11.2534  12.2304  13.7646  14.9117  15.0462  15.1211  15.1428  15.7607
    16.8347  16.9659  17.2235  18.6257  19.4085  19.5301  20.1487  20.6313
    23.8069  26.7949  26.9049  27.7511  28.2732  28.4247  28.5728  28.8617

          k = 0.4900 0.3060 0.0000 ( 13008 PWs)   bands (ev):

   -44.2181 -44.2083 -20.6097 -20.5946 -20.5806 -20.4688 -20.4672 -20.4526
    -0.8248  -0.4965   5.6662   7.0172   7.5293   8.2868   8.9140  10.1108
    11.2800  12.2329  13.7636  14.9063  15.0455  15.1196  15.1426  15.7627
    16.8334  16.9074  17.2935  18.6344  19.3900  19.5381  20.1572  20.6411
    23.7970  26.7359  26.9031  27.8076  28.1670  28.3974  28.5860  28.9663

          k = 0.4867 0.3118 0.0000 ( 13012 PWs)   bands (ev):

   -44.2181 -44.2083 -20.6095 -20.5946 -20.5804 -20.4688 -20.4676 -20.4529
    -0.8230  -0.4962   5.6698   7.0175   7.5317   8.2853   8.9096  10.0707
    11.3150  12.2363  13.7621  14.8988  15.0447  15.1175  15.1423  15.7654
    16.8315  16.8514  17.3657  18.6466  19.3648  19.5493  20.1690  20.6544
    23.7832  26.6626  26.9003  27.8773  28.0539  28.3619  28.6046  29.0306

          k = 0.4833 0.3175 0.0000 ( 13016 PWs)   bands (ev):

   -44.2181 -44.2083 -20.6093 -20.5945 -20.5802 -20.4688 -20.4680 -20.4533
    -0.8208  -0.4958   5.6743   7.0178   7.5348   8.2833   8.9040  10.0223
    11.3568  12.2408  13.7603  14.8891  15.0437  15.1147  15.1418  15.7690
    16.7978  16.8292  17.4399  18.6623  19.3333  19.5637  20.1841  20.6705
    23.7657  26.5795  26.8961  27.9377  27.9559  28.3200  28.6283  29.0402

          k = 0.4800 0.3233 0.0000 ( 13008 PWs)   bands (ev):

   -44.2181 -44.2082 -20.6090 -20.5944 -20.5799 -20.4687 -20.4686 -20.4538
    -0.8181  -0.4953   5.6799   7.0181   7.5386   8.2810   8.8973   9.9672
    11.4040  12.2462  13.7579  14.8775  15.0427  15.1112  15.1413  15.7733
    16.7467  16.8262  17.5161  18.6812  19.2963  19.5813  20.2027  20.6889
    23.7445  26.4895  26.8903  27.8200  28.0403  28.2735  28.6572  29.0480

          k = 0.4767 0.3291 0.0000 ( 13000 PWs)   bands (ev):

   -44.2180 -44.2082 -20.6087 -20.5944 -20.5796 -20.4692 -20.4687 -20.4544
    -0.8149  -0.4948   5.6865   7.0186   7.5431   8.2782   8.8893   9.9066
    11.4553  12.2526  13.7550  14.8640  15.0417  15.1071  15.1407  15.7784
    16.6980  16.8228  17.5942  18.7035  19.2543  19.6021  20.2245  20.7092
    23.7197  26.3947  26.8824  27.7015  28.1285  28.2238  28.6912  29.0532

          k = 0.4733 0.3349 0.0000 ( 12996 PWs)   bands (ev):

   -44.2180 -44.2082 -20.6083 -20.5943 -20.5793 -20.4700 -20.4687 -20.4551
    -0.8112  -0.4941   5.6941   7.0190   7.5482   8.2751   8.8803   9.8416
    11.5098  12.2599  13.7516  14.8486  15.0409  15.1022  15.1400  15.7842
    16.6516  16.8188  17.6741  18.7290  19.2079  19.6260  20.2498  20.7307
    23.6916  26.2965  26.8719  27.5825  28.1723  28.2191  28.7302  29.0548

          k = 0.4700 0.3406 0.0000 ( 12992 PWs)   bands (ev):

   -44.2180 -44.2082 -20.6079 -20.5942 -20.5789 -20.4709 -20.4686 -20.4559
    -0.8071  -0.4934   5.7027   7.0196   7.5540   8.2715   8.8701   9.7731
    11.5665  12.2683  13.7476  14.8314  15.0403  15.0965  15.1391  15.7907
    16.6077  16.8142  17.7557  18.7576  19.1576  19.6532  20.2783  20.7530
    23.6602  26.1959  26.8581  27.4634  28.1204  28.3111  28.7740  29.0525

          k = 0.4667 0.3464 0.0000 ( 12980 PWs)   bands (ev):

   -44.2179 -44.2081 -20.6074 -20.5940 -20.5784 -20.4718 -20.4686 -20.4568
    -0.8025  -0.4926   5.7123   7.0202   7.5604   8.2676   8.8589   9.7017
    11.6249  12.2775  13.7429  14.8125  15.0401  15.0899  15.1382  15.7980
    16.5660  16.8091  17.8389  18.7892  19.1040  19.6836  20.3102  20.7757
    23.6258  26.0935  26.8403  27.3444  28.0691  28.4039  28.8226  29.0460

          k = 0.4633 0.3522 0.0000 ( 12976 PWs)   bands (ev):

   -44.2179 -44.2081 -20.6069 -20.5939 -20.5779 -20.4728 -20.4685 -20.4577
    -0.7975  -0.4917   5.7229   7.0208   7.5674   8.2633   8.8467   9.6280
    11.6844  12.2877  13.7375  14.7922  15.0403  15.0825  15.1372  15.8059
    16.5266  16.8034  17.9235  18.8238  19.0476  19.7172  20.3453  20.7985
    23.5884  25.9897  26.8181  27.2255  28.0195  28.4970  28.8758  29.0351

          k = 0.4600 0.3579 0.0000 ( 12984 PWs)   bands (ev):

   -44.2178 -44.2080 -20.6063 -20.5938 -20.5774 -20.4740 -20.4684 -20.4588
    -0.7920  -0.4908   5.7344   7.0215   7.5751   8.2586   8.8335   9.5525
    11.7448  12.2988  13.7314  14.7704  15.0412  15.0742  15.1360  15.8145
    16.4895  16.7972  18.0094  18.8612  18.9887  19.7540  20.3838  20.8211
    23.5484  25.8849  26.7905  27.1069  27.9726  28.5900  28.9336  29.0199

          k = 0.4567 0.3637 0.0000 ( 12984 PWs)   bands (ev):

   -44.2178 -44.2080 -20.6057 -20.5936 -20.5768 -20.4752 -20.4684 -20.4599
    -0.7861  -0.4898   5.7470   7.0222   7.5833   8.2536   8.8194   9.4754
    11.8058  12.3108  13.7245  14.7472  15.0429  15.0650  15.1347  15.8236
    16.4544  16.7904  18.0966  18.9014  18.9277  19.7940  20.4255  20.8432
    23.5058  25.7795  26.7571  26.9886  27.9292  28.6827  28.9957  29.0004

          k = 0.4533 0.3695 0.0000 ( 12980 PWs)   bands (ev):

   -44.2177 -44.2079 -20.6051 -20.5934 -20.5762 -20.4765 -20.4683 -20.4611
    -0.7798  -0.4888   5.7606   7.0230   7.5921   8.2483   8.8045   9.3972
    11.8671  12.3237  13.7167  14.7229  15.0453  15.0548  15.1334  15.8333
    16.4215  16.7830  18.1848  18.8651  18.9441  19.8373  20.4703  20.8646
    23.4608  25.6735  26.7175  26.8707  27.8900  28.7749  28.9770  29.0619

          k = 0.4500 0.3753 0.0000 ( 12972 PWs)   bands (ev):

   -44.2177 -44.2079 -20.6044 -20.5932 -20.5755 -20.4779 -20.4682 -20.4624
    -0.7731  -0.4877   5.7751   7.0237   7.6014   8.2426   8.7888   9.3180
    11.9285  12.3375  13.7081  14.6976  15.0437  15.0488  15.1319  15.8434
    16.3905  16.7749  18.2739  18.8010  18.9894  19.8838  20.5184  20.8853
    23.4137  25.5673  26.6713  26.7532  27.8553  28.8663  28.9497  29.1322

          k = 0.4467 0.3810 0.0000 ( 12974 PWs)   bands (ev):

   -44.2176 -44.2078 -20.6037 -20.5930 -20.5748 -20.4794 -20.4682 -20.4637
    -0.7660  -0.4865   5.7906   7.0245   7.6113   8.2367   8.7724   9.2381
    11.9900  12.3521  13.6986  14.6713  15.0315  15.0533  15.1302  15.8540
    16.3614  16.7663  18.3638  18.7359  19.0370  19.9336  20.5696  20.9049
    23.3646  25.4609  26.6185  26.6362  27.8254  28.9190  28.9569  29.2062

          k = 0.4433 0.3868 0.0000 ( 12978 PWs)   bands (ev):

   -44.2176 -44.2078 -20.6030 -20.5927 -20.5741 -20.4809 -20.4681 -20.4651
    -0.7585  -0.4854   5.8071   7.0254   7.6216   8.2305   8.7554   9.1576
    12.0515  12.3676  13.6882  14.6443  15.0184  15.0590  15.1285  15.8649
    16.3342  16.7570  18.4543  18.6699  19.0870  19.9867  20.6238  20.9236
    23.3136  25.3544  26.5198  26.5593  27.8001  28.8852  29.0465  29.2838

          k = 0.4400 0.3926 0.0000 ( 12978 PWs)   bands (ev):

   -44.2175 -44.2077 -20.6022 -20.5925 -20.5733 -20.4825 -20.4680 -20.4666
    -0.7507  -0.4842   5.8245   7.0262   7.6325   8.2240   8.7377   9.0767
    12.1128  12.3839  13.6769  14.6165  15.0043  15.0659  15.1266  15.8761
    16.3087  16.7470  18.5452  18.6033  19.1391  20.0432  20.6810  20.9411
    23.2610  25.2480  26.4039  26.4940  27.7793  28.8486  29.1351  29.3648

          k = 0.4367 0.3983 0.0000 ( 12972 PWs)   bands (ev):

   -44.2175 -44.2077 -20.6015 -20.5922 -20.5724 -20.4842 -20.4682 -20.4679
    -0.7425  -0.4829   5.8428   7.0270   7.6438   8.2173   8.7195   8.9957
    12.1739  12.4009  13.6647  14.5882  14.9891  15.0742  15.1245  15.8875
    16.2849  16.7364  18.5363  18.6365  19.1932  20.1030  20.7411  20.9574
    23.2069  25.1418  26.2887  26.4230  27.7626  28.8096  29.2225  29.4489

          k = 0.4333 0.4041 0.0000 ( 12970 PWs)   bands (ev):

   -44.2174 -44.2076 -20.6007 -20.5918 -20.5715 -20.4860 -20.4698 -20.4678
    -0.7341  -0.4817   5.8621   7.0278   7.6555   8.2103   8.7009   8.9145
    12.2348  12.4188  13.6515  14.5594  14.9729  15.0838  15.1224  15.8990
    16.2626  16.7251  18.4693  18.7279  19.2493  20.1662  20.8040  20.9725
    23.1514  25.0358  26.1741  26.3469  27.7495  28.7686  29.3086  29.5359

          k = 0.4300 0.4099 0.0000 ( 12968 PWs)   bands (ev):

   -44.2173 -44.2075 -20.5999 -20.5914 -20.5706 -20.4878 -20.4715 -20.4677
    -0.7253  -0.4804   5.8824   7.0286   7.6676   8.2032   8.6820   8.8333
    12.2955  12.4373  13.6375  14.5304  14.9557  15.0948  15.1201  15.9107
    16.2419  16.7130  18.4024  18.8193  19.3072  20.2327  20.8696  20.9864
    23.0948  24.9302  26.0603  26.2663  27.7395  28.7258  29.3934  29.6254

          k = 0.4267 0.4157 0.0000 ( 12968 PWs)   bands (ev):

   -44.2173 -44.2075 -20.5991 -20.5910 -20.5696 -20.4897 -20.4732 -20.4676
    -0.7163  -0.4792   5.9035   7.0294   7.6801   8.1959   8.6627   8.7523
    12.3559  12.4565  13.6226  14.5010  14.9376  15.1073  15.1177  15.9223
    16.2227  16.7001  18.3357  18.9106  19.3669  20.3027  20.9378  20.9991
    23.0371  24.8250  25.9471  26.1817  27.7322  28.6817  29.4769  29.7171

          k = 0.4233 0.4214 0.0000 ( 12964 PWs)   bands (ev):

   -44.2172 -44.2074 -20.5983 -20.5905 -20.5686 -20.4917 -20.4750 -20.4676
    -0.7070  -0.4779   5.9256   7.0301   7.6929   8.1884   8.6433   8.6715
    12.4161  12.4764  13.6069  14.4716  14.9184  15.1151  15.1212  15.9339
    16.2048  16.6865  18.2696  19.0016  19.4281  20.3760  21.0085  21.0105
    22.9786  24.7204  25.8348  26.0937  27.7270  28.6366  29.5589  29.8108

          k = 0.4200 0.4272 0.0000 ( 12964 PWs)   bands (ev):

   -44.2171 -44.2073 -20.5976 -20.5899 -20.5676 -20.4937 -20.4768 -20.4675
    -0.6976  -0.4767   5.9485   7.0308   7.7060   8.1807   8.5911   8.6237
    12.4760  12.4970  13.5904  14.4421  14.8983  15.1124  15.1367  15.9453
    16.1882  16.6720  18.2042  19.0921  19.4908  20.4527  21.0207  21.0814
    22.9193  24.6163  25.7232  26.0028  27.7236  28.5909  29.6395  29.7722

          k = 0.4167 0.4330 0.0000 ( 12972 PWs)   bands (ev):

   -44.2170 -44.2073 -20.5969 -20.5892 -20.5665 -20.4958 -20.4787 -20.4674
    -0.6879  -0.4755   5.9724   7.0314   7.7193   8.1730   8.5111   8.6040
    12.5181  12.5356  13.5732  14.4127  14.8772  15.1096  15.1536  15.9566
    16.1729  16.6566  18.1398  19.1821  19.5548  20.5328  21.0297  21.1564
    22.8596  24.5129  25.6125  25.9094  27.7216  28.5447  29.6979  29.7186

          k = 0.4133 0.4388 0.0000 ( 12976 PWs)   bands (ev):

   -44.2170 -44.2072 -20.5963 -20.5884 -20.5654 -20.4979 -20.4806 -20.4673
    -0.6780  -0.4743   5.9971   7.0320   7.7329   8.1651   8.4317   8.5844
    12.5398  12.5950  13.5553  14.3833  14.8551  15.1066  15.1719  15.9676
    16.1588  16.6403  18.0765  19.2715  19.6201  20.6161  21.0375  21.2333
    22.7995  24.4104  25.5026  25.8140  27.7206  28.4986  29.6211  29.7960

          k = 0.4100 0.4445 0.0000 ( 12970 PWs)   bands (ev):

   -44.2169 -44.2071 -20.5957 -20.5875 -20.5642 -20.5000 -20.4826 -20.4672
    -0.6680  -0.4731   6.0227   7.0325   7.7466   8.1572   8.3529   8.5649
    12.5619  12.6541  13.5367  14.3542  14.8321  15.1035  15.1917  15.9784
    16.1458  16.6230  18.0145  19.3601  19.6864  20.7027  21.0442  21.3117
    22.7393  24.3086  25.3938  25.7168  27.7205  28.4527  29.5425  29.8719

          k = 0.4066 0.4503 0.0000 ( 12978 PWs)   bands (ev):

   -44.2168 -44.2070 -20.5952 -20.5866 -20.5630 -20.5022 -20.4846 -20.4671
    -0.6579  -0.4720   6.0491   7.0330   7.7605   8.1492   8.2749   8.5455
    12.5846  12.7130  13.5176  14.3253  14.8083  15.1003  15.2128  15.9888
    16.1338  16.6047  17.9540  19.4479  19.7538  20.7923  21.0497  21.3913
    22.6794  24.2079  25.2858  25.6182  27.7208  28.4074  29.4624  29.9462

          k = 0.4033 0.4561 0.0000 ( 12974 PWs)   bands (ev):

   -44.2167 -44.2070 -20.5947 -20.5855 -20.5618 -20.5044 -20.4867 -20.4670
    -0.6477  -0.4710   6.0764   7.0333   7.7745   8.1412   8.1977   8.5265
    12.6076  12.7716  13.4981  14.2967  14.7836  15.0969  15.2354  15.9988
    16.1230  16.5853  17.8952  19.5349  19.8220  20.8850  21.0542  21.4716
    22.6200  24.1082  25.1790  25.5184  27.7216  28.3629  29.3813  30.0188

          k = 0.4000 0.4618 0.0000 ( 12970 PWs)   bands (ev):

   -44.2167 -44.2069 -20.5943 -20.5843 -20.5605 -20.5067 -20.4887 -20.4669
    -0.6375  -0.4700   6.1044   7.0336   7.7886   8.1214   8.1332   8.5077
    12.6310  12.8299  13.4780  14.2685  14.7580  15.0935  15.2592  16.0083
    16.1131  16.5648  17.8383  19.6210  19.8910  20.9804  21.0576  21.5520
    22.5617  24.0096  25.0732  25.4178  27.7225  28.3196  29.2995  30.0897

          k = 0.3966 0.4676 0.0000 ( 12980 PWs)   bands (ev):

   -44.2166 -44.2068 -20.5939 -20.5831 -20.5593 -20.5090 -20.4908 -20.4668
    -0.6273  -0.4691   6.1333   7.0338   7.8026   8.0461   8.1252   8.4894
    12.6547  12.8880  13.4577  14.2407  14.7316  15.0900  15.2844  16.0174
    16.1042  16.5431  17.7835  19.7062  19.9605  21.0600  21.0785  21.6314
    22.5054  23.9124  24.9685  25.3166  27.7235  28.2777  29.2173  30.1588

          k = 0.3933 0.4734 0.0000 ( 12976 PWs)   bands (ev):

   -44.2165 -44.2068 -20.5936 -20.5818 -20.5579 -20.5113 -20.4929 -20.4667
    -0.6170  -0.4684   6.1629   7.0339   7.8166   7.9719   8.1172   8.4715
    12.6786  12.9459  13.4370  14.2134  14.7044  15.0864  15.3108  16.0260
    16.0962  16.5202  17.7309  19.7905  20.0304  21.0615  21.1790  21.7083
    22.4526  23.8166  24.8651  25.2149  27.7245  28.2375  29.1350  30.2261

          k = 0.3900 0.4792 0.0000 ( 12976 PWs)   bands (ev):

   -44.2165 -44.2067 -20.5933 -20.5805 -20.5566 -20.5136 -20.4950 -20.4666
    -0.6069  -0.4677   6.1932   7.0339   7.8305   7.8988   8.1093   8.4542
    12.7028  13.0034  13.4161  14.1866  14.6765  15.0827  15.3383  16.0341
    16.0891  16.4961  17.6808  19.8740  20.1005  21.0620  21.2817  21.7801
    22.4057  23.7224  24.7629  25.1130  27.7254  28.1993  29.0528  30.2917

          k = 0.3866 0.4849 0.0000 ( 12972 PWs)   bands (ev):

   -44.2164 -44.2066 -20.5930 -20.5790 -20.5552 -20.5159 -20.4972 -20.4665
    -0.5968  -0.4671   6.2243   7.0338   7.8271   7.8443   8.1014   8.4375
    12.7270  13.0607  13.3950  14.1603  14.6478  15.0791  15.3670  16.0416
    16.0828  16.4707  17.6332  19.9565  20.1707  21.0618  21.3864  21.8421
    22.3690  23.6299  24.6622  25.0110  27.7261  28.1632  28.9709  30.3553

          k = 0.3833 0.4907 0.0000 ( 12962 PWs)   bands (ev):

   -44.2163 -44.2066 -20.5928 -20.5776 -20.5538 -20.5183 -20.4993 -20.4664
    -0.5868  -0.4666   6.2560   7.0335   7.7567   7.8579   8.0936   8.4215
    12.7513  13.1177  13.3738  14.1346  14.6185  15.0753  15.3967  16.0485
    16.0774  16.4440  17.5882  20.0382  20.2406  21.0607  21.4927  21.8872
    22.3494  23.5394  24.5629  24.9092  27.7267  28.1296  28.8897  30.4171

          k = 0.3800 0.4965 0.0000 ( 12970 PWs)   bands (ev):

   -44.2163 -44.2065 -20.5926 -20.5760 -20.5523 -20.5206 -20.5015 -20.4663
    -0.5770  -0.4663   6.2884   7.0332   7.6878   7.8713   8.0860   8.4062
    12.7756  13.1744  13.3526  14.1095  14.5886  15.0717  15.4274  16.0548
    16.0727  16.4160  17.5461  20.1190  20.3102  21.0588  21.6003  21.9075
    22.3549  23.4510  24.4653  24.8076  27.7272  28.0985  28.8093  30.4769

          k = 0.3766 0.5023 0.0000 ( 12978 PWs)   bands (ev):

[...]
    -0.6451  -0.6450   6.1919   6.1920   8.1002   8.1002   9.2100   9.2100
    12.0299  12.0300  14.7396  14.7396  14.9937  14.9937  15.1620  15.1621
    16.4510  16.4512  17.0434  17.0434  20.5124  20.5125  22.1507  22.1507
    23.7246  23.7247  26.2283  26.2283  27.9598  27.9598  29.6799  29.6800

          k = 0.4600 0.3579 0.2504 ( 12972 PWs)   bands (ev):

   -44.2131 -44.2127 -20.5910 -20.5907 -20.5326 -20.5323 -20.4665 -20.4662
    -0.6418  -0.6417   6.2023   6.2024   8.0991   8.0991   9.1706   9.1707
    12.0506  12.0508  14.7266  14.7266  14.9795  14.9796  15.1638  15.1639
    16.4744  16.4746  17.0773  17.0774  20.5401  20.5402  22.0710  22.0710
    23.7597  23.7598  26.1688  26.1688  27.9529  27.9529  29.7590  29.7591

          k = 0.4567 0.3637 0.2504 ( 12972 PWs)   bands (ev):

   -44.2131 -44.2127 -20.5904 -20.5901 -20.5325 -20.5322 -20.4677 -20.4673
    -0.6382  -0.6382   6.2136   6.2136   8.0979   8.0979   9.1289   9.1289
    12.0724  12.0725  14.7140  14.7140  14.9630  14.9631  15.1669  15.1670
    16.4975  16.4977  17.1145  17.1146  20.5700  20.5701  21.9901  21.9901
    23.7924  23.7924  26.1084  26.1084  27.9438  27.9438  29.8419  29.8419

          k = 0.4533 0.3695 0.2504 ( 12968 PWs)   bands (ev):

   -44.2130 -44.2126 -20.5898 -20.5894 -20.5324 -20.5321 -20.4689 -20.4686
    -0.6345  -0.6344   6.2257   6.2257   8.0967   8.0967   9.0850   9.0851
    12.0950  12.0952  14.7017  14.7017  14.9449  14.9450  15.1707  15.1708
    16.5202  16.5204  17.1549  17.1550  20.6020  20.6021  21.9083  21.9083
    23.8223  23.8223  26.0476  26.0476  27.9324  27.9324  29.9279  29.9279

          k = 0.4500 0.3753 0.2504 ( 12968 PWs)   bands (ev):

   -44.2130 -44.2126 -20.5891 -20.5887 -20.5323 -20.5320 -20.4703 -20.4699
    -0.6305  -0.6305   6.2386   6.2387   8.0953   8.0953   9.0392   9.0393
    12.1185  12.1186  14.6898  14.6899  14.9258  14.9258  15.1747  15.1748
    16.5425  16.5427  17.1983  17.1983  20.6361  20.6362  21.8260  21.8260
    23.8494  23.8494  25.9869  25.9869  27.9185  27.9185  30.0166  30.0167

          k = 0.4467 0.3810 0.2504 ( 12966 PWs)   bands (ev):

   -44.2129 -44.2125 -20.5883 -20.5880 -20.5322 -20.5319 -20.4717 -20.4713
    -0.6263  -0.6262   6.2525   6.2525   8.0939   8.0939   8.9916   8.9917
    12.1425  12.1427  14.6784  14.6784  14.9060  14.9061  15.1785  15.1785
    16.5642  16.5644  17.2445  17.2445  20.6720  20.6721  21.7433  21.7433
    23.8735  23.8735  25.9267  25.9267  27.9022  27.9022  30.1075  30.1075

          k = 0.4433 0.3868 0.2504 ( 12974 PWs)   bands (ev):

   -44.2128 -44.2125 -20.5875 -20.5872 -20.5321 -20.5318 -20.4732 -20.4728
    -0.6219  -0.6218   6.2672   6.2672   8.0924   8.0924   8.9424   8.9425
    12.1671  12.1673  14.6674  14.6675  14.8861  14.8861  15.1819  15.1819
    16.5856  16.5857  17.2932  17.2932  20.7096  20.7097  21.6607  21.6607
    23.8944  23.8944  25.8675  25.8675  27.8833  27.8834  30.1999  30.2000

          k = 0.4400 0.3926 0.2504 ( 12978 PWs)   bands (ev):

   -44.2128 -44.2124 -20.5867 -20.5863 -20.5320 -20.5317 -20.4747 -20.4744
    -0.6173  -0.6172   6.2827   6.2827   8.0908   8.0909   8.8919   8.8919
    12.1921  12.1923  14.6569  14.6570  14.8661  14.8662  15.1847  15.1847
    16.6065  16.6066  17.3441  17.3441  20.7485  20.7485  21.5786  21.5786
    23.9119  23.9120  25.8096  25.8096  27.8620  27.8620  30.2933  30.2934

          k = 0.4367 0.3983 0.2504 ( 12974 PWs)   bands (ev):

   -44.2127 -44.2124 -20.5858 -20.5854 -20.5319 -20.5316 -20.4763 -20.4760
    -0.6125  -0.6125   6.2990   6.2990   8.0892   8.0892   8.8400   8.8401
    12.2175  12.2176  14.6469  14.6469  14.8465  14.8466  15.1867  15.1867
    16.6270  16.6272  17.3970  17.3971  20.7881  20.7881  21.4976  21.4976
    23.9261  23.9261  25.7534  25.7534  27.8380  27.8381  30.3870  30.3870

          k = 0.4333 0.4041 0.2504 ( 12974 PWs)   bands (ev):

   -44.2127 -44.2123 -20.5848 -20.5845 -20.5318 -20.5314 -20.4780 -20.4777
    -0.6075  -0.6075   6.3162   6.3162   8.0875   8.0875   8.7871   8.7871
    12.2430  12.2431  14.6373  14.6374  14.8273  14.8274  15.1878  15.1879
    16.6473  16.6475  17.4517  17.4517  20.8273  20.8274  21.4188  21.4188
    23.9367  23.9367  25.6992  25.6992  27.8116  27.8116  30.4800  30.4801

          k = 0.4300 0.4099 0.2504 ( 12974 PWs)   bands (ev):

   -44.2126 -44.2122 -20.5839 -20.5835 -20.5317 -20.5313 -20.4798 -20.4794
    -0.6025  -0.6024   6.3341   6.3342   8.0857   8.0857   8.7333   8.7333
    12.2686  12.2688  14.6282  14.6283  14.8088  14.8088  15.1881  15.1881
    16.6674  16.6675  17.5078  17.5078  20.8643  20.8644  21.3444  21.3444
    23.9437  23.9437  25.6475  25.6475  27.7827  27.7827  30.5715  30.5716

          k = 0.4267 0.4157 0.2504 ( 12974 PWs)   bands (ev):

   -44.2125 -44.2122 -20.5828 -20.5825 -20.5315 -20.5312 -20.4816 -20.4812
    -0.5972  -0.5972   6.3529   6.3529   8.0839   8.0839   8.6787   8.6787
    12.2943  12.2944  14.6195  14.6195  14.7910  14.7911  15.1873  15.1874
    16.6873  16.6875  17.5652  17.5652  20.8949  20.8949  21.2783  21.2784
    23.9469  23.9469  25.5984  25.5984  27.7513  27.7513  30.6602  30.6602

          k = 0.4233 0.4214 0.2504 ( 12974 PWs)   bands (ev):

   -44.2125 -44.2121 -20.5818 -20.5814 -20.5314 -20.5311 -20.4835 -20.4831
    -0.5919  -0.5918   6.3724   6.3724   8.0820   8.0820   8.6234   8.6235
    12.3199  12.3200  14.6112  14.6113  14.7742  14.7742  15.1856  15.1856
    16.7071  16.7073  17.6235  17.6235  20.9107  20.9108  21.2291  21.2291
    23.9464  23.9464  25.5523  25.5524  27.7175  27.7175  30.7444  30.7444

          k = 0.4200 0.4272 0.2504 ( 12970 PWs)   bands (ev):

   -44.2124 -44.2120 -20.5807 -20.5803 -20.5313 -20.5309 -20.4854 -20.4850
    -0.5864  -0.5864   6.3927   6.3927   8.0800   8.0800   8.5677   8.5677
    12.3453  12.3455  14.6033  14.6033  14.7584  14.7584  15.1828  15.1828
    16.7269  16.7270  17.6825  17.6825  20.9002  20.9003  21.2082  21.2083
    23.9420  23.9420  25.5095  25.5095  27.6814  27.6815  30.8221  30.8221

          k = 0.4167 0.4330 0.2504 ( 12978 PWs)   bands (ev):

   -44.2123 -44.2119 -20.5795 -20.5792 -20.5312 -20.5308 -20.4874 -20.4870
    -0.5809  -0.5809   6.4137   6.4138   8.0780   8.0780   8.5117   8.5117
    12.3706  12.3707  14.5957  14.5957  14.7437  14.7438  15.1789  15.1789
    16.7465  16.7467  17.7421  17.7421  20.8601  20.8601  21.2191  21.2191
    23.9338  23.9339  25.4701  25.4701  27.6431  27.6431  30.8907  30.8907

          k = 0.4133 0.4388 0.2504 ( 12976 PWs)   bands (ev):

   -44.2122 -44.2119 -20.5784 -20.5780 -20.5310 -20.5307 -20.4894 -20.4890
    -0.5753  -0.5753   6.4355   6.4356   8.0759   8.0759   8.4554   8.4555
    12.3954  12.3956  14.5885  14.5885  14.7303  14.7304  15.1739  15.1740
    16.7662  16.7663  17.8021  17.8021  20.7998  20.7999  21.2520  21.2521
    23.9219  23.9220  25.4342  25.4343  27.6027  27.6027  30.9473  30.9473

          k = 0.4100 0.4445 0.2504 ( 12980 PWs)   bands (ev):

   -44.2122 -44.2118 -20.5771 -20.5768 -20.5309 -20.5306 -20.4914 -20.4911
    -0.5697  -0.5696   6.4580   6.4581   8.0737   8.0737   8.3991   8.3992
    12.4199  12.4201  14.5816  14.5816  14.7183  14.7184  15.1679  15.1680
    16.7858  16.7859  17.8622  17.8622  20.7294  20.7294  21.2972  21.2973
    23.9064  23.9064  25.4021  25.4021  27.5602  27.5602  30.9891  30.9892

          k = 0.4066 0.4503 0.2504 ( 12976 PWs)   bands (ev):

   -44.2121 -44.2117 -20.5759 -20.5755 -20.5308 -20.5304 -20.4935 -20.4932
    -0.5640  -0.5640   6.4812   6.4812   8.0714   8.0714   8.3430   8.3430
    12.4439  12.4441  14.5750  14.5750  14.7077  14.7078  15.1609  15.1609
    16.8054  16.8055  17.9223  17.9223  20.6540  20.6540  21.3492  21.3493
    23.8875  23.8875  25.3737  25.3737  27.5159  27.5159  31.0146  31.0146

          k = 0.4033 0.4561 0.2504 ( 12980 PWs)   bands (ev):

   -44.2120 -44.2117 -20.5746 -20.5742 -20.5306 -20.5303 -20.4956 -20.4953
    -0.5583  -0.5583   6.5051   6.5051   8.0689   8.0689   8.2871   8.2871
    12.4674  12.4675  14.5687  14.5687  14.6985  14.6986  15.1527  15.1528
    16.8249  16.8250  17.9823  17.9823  20.5764  20.5764  21.4053  21.4054
    23.8653  23.8653  25.3491  25.3491  27.4698  27.4698  31.0244  31.0244

          k = 0.4000 0.4618 0.2504 ( 12980 PWs)   bands (ev):

   -44.2120 -44.2116 -20.5733 -20.5729 -20.5305 -20.5302 -20.4978 -20.4975
    -0.5527  -0.5527   6.5296   6.5296   8.0660   8.0660   8.2318   8.2318
    12.4902  12.4903  14.5629  14.5629  14.6907  14.6908  15.1436  15.1437
    16.8443  16.8445  18.0420  18.0420  20.4978  20.4978  21.4642  21.4643
    23.8402  23.8403  25.3282  25.3282  27.4221  27.4222  31.0213  31.0214

          k = 0.3966 0.4676 0.2504 ( 12976 PWs)   bands (ev):

   -44.2119 -44.2115 -20.5719 -20.5716 -20.5304 -20.5300 -20.5000 -20.4996
    -0.5471  -0.5470   6.5547   6.5547   8.0624   8.0624   8.1776   8.1777
    12.5123  12.5124  14.5575  14.5575  14.6844  14.6845  15.1335  15.1335
    16.8636  16.8637  18.1012  18.1012  20.4190  20.4190  21.5249  21.5249
    23.8125  23.8126  25.3109  25.3109  27.3731  27.3731  31.0089  31.0090

          k = 0.3933 0.4734 0.2504 ( 12976 PWs)   bands (ev):

   -44.2118 -44.2115 -20.5705 -20.5702 -20.5303 -20.5299 -20.5022 -20.5018
    -0.5415  -0.5415   6.5804   6.5804   8.0561   8.0561   8.1265   8.1266
    12.5337  12.5338  14.5526  14.5527  14.6794  14.6795  15.1223  15.1224
    16.8828  16.8829  18.1599  18.1599  20.3404  20.3405  21.5867  21.5868
    23.7826  23.7826  25.2972  25.2972  27.3227  27.3227  30.9904  30.9904

          k = 0.3900 0.4792 0.2504 ( 12978 PWs)   bands (ev):

   -44.2117 -44.2114 -20.5691 -20.5687 -20.5301 -20.5298 -20.5044 -20.5041
    -0.5361  -0.5360   6.6067   6.6067   8.0388   8.0388   8.0871   8.0871
    12.5541  12.5542  14.5485  14.5486  14.6757  14.6758  15.1103  15.1104
    16.9016  16.9017  18.2180  18.2180  20.2626  20.2626  21.6493  21.6494
    23.7508  23.7509  25.2868  25.2869  27.2714  27.2714  30.9682  30.9682

          k = 0.3866 0.4849 0.2504 ( 12982 PWs)   bands (ev):

   -44.2117 -44.2113 -20.5676 -20.5673 -20.5300 -20.5297 -20.5066 -20.5063
    -0.5307  -0.5307   6.6335   6.6335   7.9988   7.9989   8.0711   8.0711
    12.5737  12.5738  14.5451  14.5452  14.6732  14.6734  15.0973  15.0974
    16.9202  16.9203  18.2752  18.2752  20.1855  20.1856  21.7122  21.7122
    23.7176  23.7177  25.2798  25.2798  27.2191  27.2191  30.9439  30.9439

          k = 0.3833 0.4907 0.2504 ( 12978 PWs)   bands (ev):

   -44.2116 -44.2113 -20.5661 -20.5658 -20.5299 -20.5295 -20.5089 -20.5085
    -0.5255  -0.5254   6.6607   6.6607   7.9495   7.9495   8.0653   8.0653
    12.5922  12.5923  14.5425  14.5426  14.6719  14.6721  15.0835  15.0836
    16.9385  16.9386  18.3316  18.3316  20.1096  20.1097  21.7748  21.7749
    23.6834  23.6834  25.2758  25.2758  27.1663  27.1663  30.9187  30.9188

          k = 0.3800 0.4965 0.2504 ( 12978 PWs)   bands (ev):

   -44.2116 -44.2112 -20.5646 -20.5643 -20.5298 -20.5294 -20.5111 -20.5108
    -0.5204  -0.5203   6.6883   6.6884   7.8988   7.8988   8.0618   8.0619
    12.6097  12.6098  14.5409  14.5410  14.6717  14.6718  15.0689  15.0690
    16.9563  16.9564  18.3871  18.3871  20.0350  20.0351  21.8368  21.8369
    23.6486  23.6486  25.2748  25.2748  27.1131  27.1131  30.8935  30.8935

          k = 0.3766 0.5023 0.2504 ( 12978 PWs)   bands (ev):

   -44.2115 -44.2111 -20.5631 -20.5627 -20.5297 -20.5293 -20.5134 -20.5130
    -0.5155  -0.5154   6.7163   6.7163   7.8483   7.8484   8.0592   8.0592
    12.6261  12.6262  14.5402  14.5404  14.6724  14.6725  15.0535  15.0536
    16.9736  16.9737  18.4415  18.4415  19.9619  19.9620  21.8978  21.8978
    23.6137  23.6137  25.2766  25.2766  27.0597  27.0597  30.8687  30.8687

          k = 0.3733 0.5080 0.2504 ( 12986 PWs)   bands (ev):

   -44.2114 -44.2111 -20.5615 -20.5611 -20.5296 -20.5292 -20.5156 -20.5152
    -0.5108  -0.5108   6.7445   6.7446   7.7988   7.7988   8.0570   8.0570
    12.6414  12.6415  14.5407  14.5408  14.6740  14.6741  15.0374  15.0375
    16.9903  16.9903  18.4947  18.4947  19.8905  19.8906  21.9571  21.9572
    23.5791  23.5791  25.2810  25.2810  27.0066  27.0066  30.8448  30.8448

          k = 0.3700 0.5138 0.2504 ( 12986 PWs)   bands (ev):

   -44.2114 -44.2110 -20.5599 -20.5595 -20.5295 -20.5291 -20.5178 -20.5175
    -0.5063  -0.5063   6.7729   6.7729   7.7504   7.7504   8.0550   8.0550
    12.6554  12.6555  14.5422  14.5424  14.6764  14.6765  15.0208  15.0209
    17.0063  17.0063  18.5467  18.5467  19.8211  19.8211  22.0144  22.0144
    23.5453  23.5453  25.2878  25.2878  26.9540  26.9540  30.8220  30.8220

          k = 0.3666 0.5196 0.2504 ( 12978 PWs)   bands (ev):

   -44.2113 -44.2110 -20.5583 -20.5579 -20.5294 -20.5290 -20.5200 -20.5197
    -0.5021  -0.5021   6.8012   6.8013   7.7035   7.7035   8.0532   8.0532
    12.6683  12.6683  14.5448  14.5450  14.6795  14.6796  15.0037  15.0038
    17.0215  17.0215  18.5973  18.5973  19.7538  19.7538  22.0690  22.0690
    23.5127  23.5128  25.2969  25.2969  26.9022  26.9022  30.8006  30.8006

          k = 0.3633 0.5253 0.2504 ( 12978 PWs)   bands (ev):

   -44.2113 -44.2109 -20.5566 -20.5563 -20.5293 -20.5290 -20.5222 -20.5219
    -0.4982  -0.4982   6.8294   6.8295   7.6583   7.6583   8.0515   8.0516
    12.6798  12.6799  14.5484  14.5486  14.6832  14.6833  14.9862  14.9863
    17.0358  17.0358  18.6463  18.6463  19.6889  19.6889  22.1204  22.1204
    23.4819  23.4819  25.3079  25.3079  26.8518  26.8518  30.7808  30.7808

          k = 0.3600 0.5311 0.2504 ( 12974 PWs)   bands (ev):

   -44.2112 -44.2109 -20.5549 -20.5546 -20.5292 -20.5289 -20.5244 -20.5240
    -0.4946  -0.4945   6.8572   6.8572   7.6152   7.6152   8.0500   8.0501
    12.6901  12.6902  14.5530  14.5532  14.6874  14.6875  14.9686  14.9687
    17.0490  17.0491  18.6935  18.6935  19.6268  19.6269  22.1680  22.1680
    23.4532  23.4533  25.3206  25.3206  26.8033  26.8033  30.7626  30.7626

          k = 0.3566 0.5369 0.2504 ( 12978 PWs)   bands (ev):

   -44.2112 -44.2108 -20.5533 -20.5529 -20.5292 -20.5289 -20.5265 -20.5261
    -0.4913  -0.4913   6.8843   6.8843   7.5744   7.5744   8.0487   8.0487
    12.6992  12.6992  14.5585  14.5587  14.6919  14.6920  14.9510  14.9510
    17.0612  17.0613  18.7386  18.7387  19.5680  19.5680  22.2111  22.2112
    23.4272  23.4273  25.3346  25.3346  26.7571  26.7572  30.7462  30.7462

          k = 0.3533 0.5427 0.2504 ( 12970 PWs)   bands (ev):

   -44.2112 -44.2108 -20.5516 -20.5512 -20.5292 -20.5291 -20.5283 -20.5281
    -0.4884  -0.4883   6.9103   6.9103   7.5364   7.5365   8.0475   8.0475
    12.7069  12.7069  14.5648  14.5650  14.6966  14.6967  14.9337  14.9338
    17.0721  17.0722  18.7813  18.7813  19.5129  19.5130  22.2494  22.2494
    23.4043  23.4043  25.3493  25.3493  26.7141  26.7141  30.7318  30.7318

          k = 0.3500 0.5484 0.2504 ( 12966 PWs)   bands (ev):

   -44.2111 -44.2108 -20.5498 -20.5495 -20.5308 -20.5305 -20.5289 -20.5286
    -0.4858  -0.4858   6.9346   6.9346   7.5019   7.5019   8.0464   8.0464
    12.7133  12.7134  14.5715  14.5718  14.7012  14.7013  14.9172  14.9173
    17.0817  17.0817  18.8209  18.8209  19.4624  19.4624  22.2821  22.2822
    23.3847  23.3848  25.3642  25.3642  26.6750  26.6750  30.7193  30.7193

          k = 0.3466 0.5542 0.2504 ( 12974 PWs)   bands (ev):

   -44.2111 -44.2108 -20.5481 -20.5478 -20.5328 -20.5324 -20.5289 -20.5286
    -0.4837  -0.4836   6.9565   6.9565   7.4715   7.4716   8.0455   8.0456
    12.7186  12.7186  14.5785  14.5788  14.7053  14.7054  14.9020  14.9021
    17.0898  17.0898  18.8564  18.8564  19.4175  19.4176  22.3090  22.3091
    23.3689  23.3689  25.3784  25.3784  26.6407  26.6407  30.7089  30.7089

          k = 0.3433 0.5600 0.2504 ( 12964 PWs)   bands (ev):

   -44.2111 -44.2107 -20.5464 -20.5461 -20.5347 -20.5343 -20.5289 -20.5286
    -0.4820  -0.4819   6.9752   6.9752   7.4463   7.4463   8.0448   8.0448
    12.7225  12.7225  14.5854  14.5856  14.7086  14.7087  14.8889  14.8889
    17.0963  17.0963  18.8867  18.8867  19.3797  19.3797  22.3298  22.3298
    23.3569  23.3569  25.3912  25.3912  26.6122  26.6122  30.7007  30.7007

          k = 0.3400 0.5657 0.2504 ( 12960 PWs)   bands (ev):

   -44.2111 -44.2107 -20.5447 -20.5444 -20.5365 -20.5362 -20.5289 -20.5285
    -0.4807  -0.4807   6.9895   6.9896   7.4272   7.4272   8.0443   8.0443
    12.7253  12.7253  14.5914  14.5917  14.7108  14.7108  14.8787  14.8787
    17.1010  17.1010  18.9101  18.9101  19.3507  19.3507  22.3444  22.3444
    23.3487  23.3487  25.4016  25.4016  26.5906  26.5906  30.6948  30.6948

          k = 0.3366 0.5715 0.2504 ( 12948 PWs)   bands (ev):

   -44.2111 -44.2107 -20.5432 -20.5430 -20.5380 -20.5378 -20.5289 -20.5285
    -0.4800  -0.4799   6.9986   6.9986   7.4152   7.4153   8.0439   8.0440
    12.7270  12.7270  14.5959  14.5962  14.7117  14.7117  14.8722  14.8722
    17.1039  17.1040  18.9248  18.9248  19.3325  19.3325  22.3529  22.3529
    23.3440  23.3441  25.4084  25.4085  26.5769  26.5769  30.6911  30.6911

          k = 0.3333 0.5773 0.2504 ( 12948 PWs)   bands (ev):

   -44.2111 -44.2107 -20.5423 -20.5423 -20.5387 -20.5387 -20.5289 -20.5285
    -0.4797  -0.4797   7.0017   7.0017   7.4112   7.4112   8.0438   8.0438
    12.7275  12.7275  14.5977  14.5980  14.7117  14.7117  14.8700  14.8700
    17.1050  17.1050  18.9298  18.9298  19.3263  19.3263  22.3556  22.3556
    23.3426  23.3426  25.4109  25.4109  26.5722  26.5722  30.6899  30.6899

     Writing all to output data dir ./out/TiS.save/

     init_run     :      1.09s CPU      0.97s WALL (       1 calls)
     electrons    :    323.21s CPU    175.64s WALL (       1 calls)

     Called by init_run:
     wfcinit      :      0.00s CPU      0.00s WALL (       1 calls)
     wfcinit:atom :      0.28s CPU      0.28s WALL (      24 calls)
     wfcinit:wfcr :      7.39s CPU      3.74s WALL (      24 calls)
     potinit      :      0.29s CPU      0.15s WALL (       1 calls)
     hinit0       :      0.72s CPU      0.71s WALL (       1 calls)

     Called by electrons:
     c_bands      :    323.18s CPU    175.60s WALL (       1 calls)
     v_of_rho     :      0.28s CPU      0.15s WALL (       1 calls)
     v_h          :      0.01s CPU      0.00s WALL (       1 calls)
     v_xc         :      0.28s CPU      0.14s WALL (       1 calls)
     newd         :      0.04s CPU      0.06s WALL (       1 calls)

     Called by c_bands:
     init_us_2    :      0.27s CPU      0.26s WALL (      24 calls)
     init_us_2:cp :      0.27s CPU      0.26s WALL (      24 calls)
     cegterg      :    308.97s CPU    155.82s WALL (      71 calls)

     Called by sum_band:

     Called by *egterg:
     cdiaghg      :      4.23s CPU      2.21s WALL (    1217 calls)
     cegterg:over :     35.02s CPU     17.54s WALL (    1193 calls)
     cegterg:upda :     39.34s CPU     19.75s WALL (    1193 calls)
     cegterg:last :     58.58s CPU     29.40s WALL (     642 calls)
     h_psi        :    138.03s CPU     69.61s WALL (    1288 calls)
     s_psi        :     18.33s CPU      9.22s WALL (    1288 calls)
     g_psi        :      5.82s CPU      2.93s WALL (    1193 calls)

     Called by h_psi:
     h_psi:calbec :     18.41s CPU      8.85s WALL (    1288 calls)
     vloc_psi     :     95.37s CPU     47.91s WALL (    1288 calls)
     add_vuspsi   :     17.50s CPU      9.17s WALL (    1288 calls)

     General routines
     calbec       :     18.40s CPU      8.85s WALL (    1288 calls)
     fft          :      0.02s CPU      0.02s WALL (      21 calls)
     fftw         :     68.19s CPU     34.18s WALL (   53540 calls)
     davcio       :      0.16s CPU      1.04s WALL (      48 calls)

     Parallel routines

     PWSCF        :   5m27.13s CPU   4m12.99s WALL


   This run was terminated on:   7:47: 2   6Oct2023            

=------------------------------------------------------------------------------=
   JOB DONE.
=------------------------------------------------------------------------------=
