
     Program PWSCF v.7.1 starts on  6Oct2023 at  7:37:41 

     This program is part of the open-source Quantum ESPRESSO suite
     for quantum simulation of materials; please cite
         "P. Giannozzi et al., J. Phys.:Condens. Matter 21 395502 (2009);
         "P. Giannozzi et al., J. Phys.:Condens. Matter 29 465901 (2017);
         "P. Giannozzi et al., J. Chem. Phys. 152 154105 (2020);
          URL http://www.quantum-espresso.org", 
     in publications or presentations arising from this work. More details at
     http://www.quantum-espresso.org/quote

     Parallel version (MPI & OpenMP), running on      60 processor cores
     Number of MPI processes:                30
     Threads/MPI process:                     2

     MPI processes distributed on     5 nodes
     13051 MiB available memory on the printing compute node when the environment starts

     Reading input from TiS.scf.in

     Current dimensions of program PWSCF are:
     Max number of different atomic species (ntypx) = 10
     Max number of k-points (npk) =  40000
     Max angular momentum in pseudopotentials (lmaxx) =  4
     Message from routine set_cutoff:
     ecutrho < 4*ecutwfc, are you sure?

     K-points division:     npool     =       5
     R & G space division:  proc/nbgrp/npool/nimage =       6
     Subspace diagonalization in iterative solution of the eigenvalue problem:
     a serial algorithm will be used


     Parallelization info
     --------------------
     sticks:   dense  smooth     PW     G-vecs:    dense   smooth      PW
     Min         124     124     79                 5512     5512    2747
     Max         125     125     80                 5523     5523    2752
     Sum         745     745    475                33091    33091   16499

     Using Slab Decomposition



     bravais-lattice index     =            0
     lattice parameter (alat)  =       6.2293  a.u.
     unit-cell volume          =     417.9542 (a.u.)^3
     number of atoms/cell      =            4
     number of atomic types    =            2
     number of electrons       =        36.00
     number of Kohn-Sham states=           22
     kinetic-energy cutoff     =     150.0000  Ry
     charge density cutoff     =     280.0000  Ry
     scf convergence threshold =      8.0E-10
     mixing beta               =       0.4000
     number of iterations used =            8  plain     mixing
     Exchange-correlation=  SLA  PW   PBX  PBC
                           (   1   4   3   4   0   0   0)

     celldm(1)=   6.229263  celldm(2)=   0.000000  celldm(3)=   0.000000
     celldm(4)=   0.000000  celldm(5)=   0.000000  celldm(6)=   0.000000

     crystal axes: (cart. coord. in units of alat)
               a(1) = (   1.000000   0.000000   0.000000 )  
               a(2) = (  -0.500000   0.866025   0.000000 )  
               a(3) = (   0.000000   0.000000   1.996586 )  

     reciprocal axes: (cart. coord. in units 2 pi/alat)
               b(1) = (  1.000000  0.577350 -0.000000 )  
               b(2) = (  0.000000  1.154701  0.000000 )  
               b(3) = (  0.000000 -0.000000  0.500855 )  


     PseudoPot. # 1 for S  read from file:
     /home/tcmp/apps/pseudopotential/s_pbe_v1.4.uspp.F.UPF
     MD5 check sum: 88d86576ff6df21479756cfb9bdac1df
     Pseudo is Ultrasoft + core correction, Zval =  6.0
     Generated by new atomic code, or converted to UPF format
     Using radial grid of  907 points,  6 beta functions with: 
                l(1) =   0
                l(2) =   0
                l(3) =   1
                l(4) =   1
                l(5) =   2
                l(6) =   2
     Q(r) pseudized with  8 coefficients,  rinner =    1.300   1.300   1.300
                                                       1.300   1.300

     PseudoPot. # 2 for Ti read from file:
     /home/tcmp/apps/pseudopotential/ti_pbe_v1.4.uspp.F.UPF
     MD5 check sum: 88a00a6731bd790ddea75d31a80cb452
     Pseudo is Ultrasoft + core correction, Zval = 12.0
     Generated by new atomic code, or converted to UPF format
     Using radial grid of  851 points,  6 beta functions with: 
                l(1) =   0
                l(2) =   0
                l(3) =   1
                l(4) =   1
                l(5) =   2
                l(6) =   2
     Q(r) pseudized with  6 coefficients,  rinner =    1.000   1.000   1.000
                                                       1.000   1.000

     atomic species   valence    mass     pseudopotential
        S              6.00    32.06500     S ( 1.00)
        Ti            12.00    47.86700     Ti( 1.00)

     Starting magnetic structure 
     atomic species   magnetization
        S            0.100
        Ti           0.417

     No symmetry found


                                    s                        frac. trans.

      isym =  1     identity                                     

 cryst.   s( 1) = (     1          0          0      )
                  (     0          1          0      )
                  (     0          0          1      )

 cart.    s( 1) = (  1.0000000 -0.0000000  0.0000000 )
                  (  0.0000000  1.0000000  0.0000000 )
                  (  0.0000000  0.0000000  1.0000000 )


   Cartesian axes

     site n.     atom                  positions (alat units)
         1           S   tau(   1) = (   0.5000000   0.2887168   0.4991465  )
         2           S   tau(   2) = (  -0.0000000   0.5773086   1.4974395  )
         3           Ti  tau(   3) = (   0.0000000   0.0000000   0.0000000  )
         4           Ti  tau(   4) = (   0.0000000   0.0000000   0.9982930  )

   Crystallographic axes

     site n.     atom                  positions (cryst. coord.)
         1           S   tau(   1) = (  0.6666907  0.3333814  0.2500000  )
         2           S   tau(   2) = (  0.3333093  0.6666186  0.7500000  )
         3           Ti  tau(   3) = (  0.0000000  0.0000000  0.0000000  )
         4           Ti  tau(   4) = (  0.0000000  0.0000000  0.5000000  )

     number of k points=   362  Marzari-Vanderbilt smearing, width (Ry)=  0.0147
                       cart. coord. in units 2pi/alat
        k(    1) = (   0.0000000   0.0000000   0.0000000), wk =   0.0013889
        k(    2) = (   0.0000000   0.0000000   0.1001710), wk =   0.0027778
        k(    3) = (   0.0000000   0.0000000   0.2003420), wk =   0.0027778
        k(    4) = (   0.0000000   0.0962250   0.0000000), wk =   0.0027778
        k(    5) = (   0.0000000   0.0962250   0.1001710), wk =   0.0027778
        k(    6) = (   0.0000000   0.0962250   0.2003420), wk =   0.0027778
        k(    7) = (   0.0000000   0.0962250  -0.2003420), wk =   0.0027778
        k(    8) = (   0.0000000   0.0962250  -0.1001710), wk =   0.0027778
        k(    9) = (   0.0000000   0.1924501   0.0000000), wk =   0.0027778
        k(   10) = (   0.0000000   0.1924501   0.1001710), wk =   0.0027778
        k(   11) = (   0.0000000   0.1924501   0.2003420), wk =   0.0027778
        k(   12) = (   0.0000000   0.1924501  -0.2003420), wk =   0.0027778
        k(   13) = (   0.0000000   0.1924501  -0.1001710), wk =   0.0027778
        k(   14) = (   0.0000000   0.2886751   0.0000000), wk =   0.0027778
        k(   15) = (   0.0000000   0.2886751   0.1001710), wk =   0.0027778
        k(   16) = (   0.0000000   0.2886751   0.2003420), wk =   0.0027778
        k(   17) = (   0.0000000   0.2886751  -0.2003420), wk =   0.0027778
        k(   18) = (   0.0000000   0.2886751  -0.1001710), wk =   0.0027778
        k(   19) = (   0.0000000   0.3849002   0.0000000), wk =   0.0027778
        k(   20) = (   0.0000000   0.3849002   0.1001710), wk =   0.0027778
        k(   21) = (   0.0000000   0.3849002   0.2003420), wk =   0.0027778
        k(   22) = (   0.0000000   0.3849002  -0.2003420), wk =   0.0027778
        k(   23) = (   0.0000000   0.3849002  -0.1001710), wk =   0.0027778
        k(   24) = (   0.0000000   0.4811252   0.0000000), wk =   0.0027778
        k(   25) = (   0.0000000   0.4811252   0.1001710), wk =   0.0027778
        k(   26) = (   0.0000000   0.4811252   0.2003420), wk =   0.0027778
        k(   27) = (   0.0000000   0.4811252  -0.2003420), wk =   0.0027778
        k(   28) = (   0.0000000   0.4811252  -0.1001710), wk =   0.0027778
        k(   29) = (   0.0000000  -0.5773503   0.0000000), wk =   0.0013889
        k(   30) = (   0.0000000  -0.5773503   0.1001710), wk =   0.0027778
        k(   31) = (   0.0000000  -0.5773503   0.2003420), wk =   0.0027778
        k(   32) = (   0.0833333   0.0481125   0.0000000), wk =   0.0027778
        k(   33) = (   0.0833333   0.0481125   0.1001710), wk =   0.0027778
        k(   34) = (   0.0833333   0.0481125   0.2003420), wk =   0.0027778
        k(   35) = (   0.0833333   0.0481125  -0.2003420), wk =   0.0027778
        k(   36) = (   0.0833333   0.0481125  -0.1001710), wk =   0.0027778
        k(   37) = (   0.0833333   0.1443376   0.0000000), wk =   0.0027778
        k(   38) = (   0.0833333   0.1443376   0.1001710), wk =   0.0027778
        k(   39) = (   0.0833333   0.1443376   0.2003420), wk =   0.0027778
        k(   40) = (   0.0833333   0.1443376  -0.2003420), wk =   0.0027778
        k(   41) = (   0.0833333   0.1443376  -0.1001710), wk =   0.0027778
        k(   42) = (   0.0833333   0.2405626   0.0000000), wk =   0.0027778
        k(   43) = (   0.0833333   0.2405626   0.1001710), wk =   0.0027778
        k(   44) = (   0.0833333   0.2405626   0.2003420), wk =   0.0027778
        k(   45) = (   0.0833333   0.2405626  -0.2003420), wk =   0.0027778
        k(   46) = (   0.0833333   0.2405626  -0.1001710), wk =   0.0027778
        k(   47) = (   0.0833333   0.3367877   0.0000000), wk =   0.0027778
        k(   48) = (   0.0833333   0.3367877   0.1001710), wk =   0.0027778
        k(   49) = (   0.0833333   0.3367877   0.2003420), wk =   0.0027778
        k(   50) = (   0.0833333   0.3367877  -0.2003420), wk =   0.0027778
        k(   51) = (   0.0833333   0.3367877  -0.1001710), wk =   0.0027778
        k(   52) = (   0.0833333   0.4330127   0.0000000), wk =   0.0027778
        k(   53) = (   0.0833333   0.4330127   0.1001710), wk =   0.0027778
        k(   54) = (   0.0833333   0.4330127   0.2003420), wk =   0.0027778
        k(   55) = (   0.0833333   0.4330127  -0.2003420), wk =   0.0027778
        k(   56) = (   0.0833333   0.4330127  -0.1001710), wk =   0.0027778
        k(   57) = (   0.0833333   0.5292377   0.0000000), wk =   0.0027778
        k(   58) = (   0.0833333   0.5292377   0.1001710), wk =   0.0027778
        k(   59) = (   0.0833333   0.5292377   0.2003420), wk =   0.0027778
        k(   60) = (   0.0833333   0.5292377  -0.2003420), wk =   0.0027778
        k(   61) = (   0.0833333   0.5292377  -0.1001710), wk =   0.0027778
        k(   62) = (   0.0833333  -0.5292377   0.0000000), wk =   0.0027778
        k(   63) = (   0.0833333  -0.5292377   0.1001710), wk =   0.0027778
        k(   64) = (   0.0833333  -0.5292377   0.2003420), wk =   0.0027778
        k(   65) = (   0.0833333  -0.5292377  -0.2003420), wk =   0.0027778
        k(   66) = (   0.0833333  -0.5292377  -0.1001710), wk =   0.0027778
        k(   67) = (   0.0833333  -0.4330127   0.0000000), wk =   0.0027778
        k(   68) = (   0.0833333  -0.4330127   0.1001710), wk =   0.0027778
        k(   69) = (   0.0833333  -0.4330127   0.2003420), wk =   0.0027778
        k(   70) = (   0.0833333  -0.4330127  -0.2003420), wk =   0.0027778
        k(   71) = (   0.0833333  -0.4330127  -0.1001710), wk =   0.0027778
        k(   72) = (   0.0833333  -0.3367877   0.0000000), wk =   0.0027778
        k(   73) = (   0.0833333  -0.3367877   0.1001710), wk =   0.0027778
        k(   74) = (   0.0833333  -0.3367877   0.2003420), wk =   0.0027778
        k(   75) = (   0.0833333  -0.3367877  -0.2003420), wk =   0.0027778
        k(   76) = (   0.0833333  -0.3367877  -0.1001710), wk =   0.0027778
        k(   77) = (   0.0833333  -0.2405626   0.0000000), wk =   0.0027778
        k(   78) = (   0.0833333  -0.2405626   0.1001710), wk =   0.0027778
        k(   79) = (   0.0833333  -0.2405626   0.2003420), wk =   0.0027778
        k(   80) = (   0.0833333  -0.2405626  -0.2003420), wk =   0.0027778
        k(   81) = (   0.0833333  -0.2405626  -0.1001710), wk =   0.0027778
        k(   82) = (   0.0833333  -0.1443376   0.0000000), wk =   0.0027778
        k(   83) = (   0.0833333  -0.1443376   0.1001710), wk =   0.0027778
        k(   84) = (   0.0833333  -0.1443376   0.2003420), wk =   0.0027778
        k(   85) = (   0.0833333  -0.1443376  -0.2003420), wk =   0.0027778
        k(   86) = (   0.0833333  -0.1443376  -0.1001710), wk =   0.0027778
        k(   87) = (   0.0833333  -0.0481125   0.0000000), wk =   0.0027778
        k(   88) = (   0.0833333  -0.0481125   0.1001710), wk =   0.0027778
        k(   89) = (   0.0833333  -0.0481125   0.2003420), wk =   0.0027778
        k(   90) = (   0.0833333  -0.0481125  -0.2003420), wk =   0.0027778
        k(   91) = (   0.0833333  -0.0481125  -0.1001710), wk =   0.0027778
        k(   92) = (   0.1666667   0.0962250   0.0000000), wk =   0.0027778
        k(   93) = (   0.1666667   0.0962250   0.1001710), wk =   0.0027778
        k(   94) = (   0.1666667   0.0962250   0.2003420), wk =   0.0027778
        k(   95) = (   0.1666667   0.0962250  -0.2003420), wk =   0.0027778
        k(   96) = (   0.1666667   0.0962250  -0.1001710), wk =   0.0027778
        k(   97) = (   0.1666667   0.1924501   0.0000000), wk =   0.0027778
        k(   98) = (   0.1666667   0.1924501   0.1001710), wk =   0.0027778
        k(   99) = (   0.1666667   0.1924501   0.2003420), wk =   0.0027778
        k(  100) = (   0.1666667   0.1924501  -0.2003420), wk =   0.0027778
        k(  101) = (   0.1666667   0.1924501  -0.1001710), wk =   0.0027778
        k(  102) = (   0.1666667   0.2886751   0.0000000), wk =   0.0027778
        k(  103) = (   0.1666667   0.2886751   0.1001710), wk =   0.0027778
        k(  104) = (   0.1666667   0.2886751   0.2003420), wk =   0.0027778
        k(  105) = (   0.1666667   0.2886751  -0.2003420), wk =   0.0027778
        k(  106) = (   0.1666667   0.2886751  -0.1001710), wk =   0.0027778
        k(  107) = (   0.1666667   0.3849002   0.0000000), wk =   0.0027778
        k(  108) = (   0.1666667   0.3849002   0.1001710), wk =   0.0027778
        k(  109) = (   0.1666667   0.3849002   0.2003420), wk =   0.0027778
        k(  110) = (   0.1666667   0.3849002  -0.2003420), wk =   0.0027778
        k(  111) = (   0.1666667   0.3849002  -0.1001710), wk =   0.0027778
        k(  112) = (   0.1666667   0.4811252   0.0000000), wk =   0.0027778
        k(  113) = (   0.1666667   0.4811252   0.1001710), wk =   0.0027778
        k(  114) = (   0.1666667   0.4811252   0.2003420), wk =   0.0027778
        k(  115) = (   0.1666667   0.4811252  -0.2003420), wk =   0.0027778
        k(  116) = (   0.1666667   0.4811252  -0.1001710), wk =   0.0027778
        k(  117) = (   0.1666667   0.5773503   0.0000000), wk =   0.0027778
        k(  118) = (   0.1666667   0.5773503   0.1001710), wk =   0.0027778
        k(  119) = (   0.1666667   0.5773503   0.2003420), wk =   0.0027778
        k(  120) = (   0.1666667   0.5773503  -0.2003420), wk =   0.0027778
        k(  121) = (   0.1666667   0.5773503  -0.1001710), wk =   0.0027778
        k(  122) = (   0.1666667  -0.4811252   0.0000000), wk =   0.0027778
        k(  123) = (   0.1666667  -0.4811252   0.1001710), wk =   0.0027778
        k(  124) = (   0.1666667  -0.4811252   0.2003420), wk =   0.0027778
        k(  125) = (   0.1666667  -0.4811252  -0.2003420), wk =   0.0027778
        k(  126) = (   0.1666667  -0.4811252  -0.1001710), wk =   0.0027778
        k(  127) = (   0.1666667  -0.3849002   0.0000000), wk =   0.0027778
        k(  128) = (   0.1666667  -0.3849002   0.1001710), wk =   0.0027778
        k(  129) = (   0.1666667  -0.3849002   0.2003420), wk =   0.0027778
        k(  130) = (   0.1666667  -0.3849002  -0.2003420), wk =   0.0027778
        k(  131) = (   0.1666667  -0.3849002  -0.1001710), wk =   0.0027778
        k(  132) = (   0.1666667  -0.2886751   0.0000000), wk =   0.0027778
        k(  133) = (   0.1666667  -0.2886751   0.1001710), wk =   0.0027778
        k(  134) = (   0.1666667  -0.2886751   0.2003420), wk =   0.0027778
        k(  135) = (   0.1666667  -0.2886751  -0.2003420), wk =   0.0027778
        k(  136) = (   0.1666667  -0.2886751  -0.1001710), wk =   0.0027778
        k(  137) = (   0.1666667  -0.1924501   0.0000000), wk =   0.0027778
        k(  138) = (   0.1666667  -0.1924501   0.1001710), wk =   0.0027778
        k(  139) = (   0.1666667  -0.1924501   0.2003420), wk =   0.0027778
        k(  140) = (   0.1666667  -0.1924501  -0.2003420), wk =   0.0027778
        k(  141) = (   0.1666667  -0.1924501  -0.1001710), wk =   0.0027778
        k(  142) = (   0.1666667  -0.0962250   0.0000000), wk =   0.0027778
        k(  143) = (   0.1666667  -0.0962250   0.1001710), wk =   0.0027778
        k(  144) = (   0.1666667  -0.0962250   0.2003420), wk =   0.0027778
        k(  145) = (   0.1666667  -0.0962250  -0.2003420), wk =   0.0027778
        k(  146) = (   0.1666667  -0.0962250  -0.1001710), wk =   0.0027778
        k(  147) = (   0.1666667  -0.0000000   0.0000000), wk =   0.0027778
        k(  148) = (   0.1666667  -0.0000000   0.1001710), wk =   0.0027778
        k(  149) = (   0.1666667  -0.0000000   0.2003420), wk =   0.0027778
        k(  150) = (   0.1666667  -0.0000000  -0.2003420), wk =   0.0027778
        k(  151) = (   0.1666667  -0.0000000  -0.1001710), wk =   0.0027778
        k(  152) = (   0.2500000   0.1443376   0.0000000), wk =   0.0027778
        k(  153) = (   0.2500000   0.1443376   0.1001710), wk =   0.0027778
        k(  154) = (   0.2500000   0.1443376   0.2003420), wk =   0.0027778
        k(  155) = (   0.2500000   0.1443376  -0.2003420), wk =   0.0027778
        k(  156) = (   0.2500000   0.1443376  -0.1001710), wk =   0.0027778
        k(  157) = (   0.2500000   0.2405626   0.0000000), wk =   0.0027778
        k(  158) = (   0.2500000   0.2405626   0.1001710), wk =   0.0027778
        k(  159) = (   0.2500000   0.2405626   0.2003420), wk =   0.0027778
        k(  160) = (   0.2500000   0.2405626  -0.2003420), wk =   0.0027778
        k(  161) = (   0.2500000   0.2405626  -0.1001710), wk =   0.0027778
        k(  162) = (   0.2500000   0.3367877   0.0000000), wk =   0.0027778
        k(  163) = (   0.2500000   0.3367877   0.1001710), wk =   0.0027778
        k(  164) = (   0.2500000   0.3367877   0.2003420), wk =   0.0027778
        k(  165) = (   0.2500000   0.3367877  -0.2003420), wk =   0.0027778
        k(  166) = (   0.2500000   0.3367877  -0.1001710), wk =   0.0027778
        k(  167) = (   0.2500000   0.4330127   0.0000000), wk =   0.0027778
        k(  168) = (   0.2500000   0.4330127   0.1001710), wk =   0.0027778
        k(  169) = (   0.2500000   0.4330127   0.2003420), wk =   0.0027778
        k(  170) = (   0.2500000   0.4330127  -0.2003420), wk =   0.0027778
        k(  171) = (   0.2500000   0.4330127  -0.1001710), wk =   0.0027778
        k(  172) = (   0.2500000   0.5292377   0.0000000), wk =   0.0027778
        k(  173) = (   0.2500000   0.5292377   0.1001710), wk =   0.0027778
        k(  174) = (   0.2500000   0.5292377   0.2003420), wk =   0.0027778
        k(  175) = (   0.2500000   0.5292377  -0.2003420), wk =   0.0027778
        k(  176) = (   0.2500000   0.5292377  -0.1001710), wk =   0.0027778
        k(  177) = (   0.2500000   0.6254628   0.0000000), wk =   0.0027778
        k(  178) = (   0.2500000   0.6254628   0.1001710), wk =   0.0027778
        k(  179) = (   0.2500000   0.6254628   0.2003420), wk =   0.0027778
        k(  180) = (   0.2500000   0.6254628  -0.2003420), wk =   0.0027778
        k(  181) = (   0.2500000   0.6254628  -0.1001710), wk =   0.0027778
        k(  182) = (   0.2500000  -0.4330127   0.0000000), wk =   0.0027778
        k(  183) = (   0.2500000  -0.4330127   0.1001710), wk =   0.0027778
        k(  184) = (   0.2500000  -0.4330127   0.2003420), wk =   0.0027778
        k(  185) = (   0.2500000  -0.4330127  -0.2003420), wk =   0.0027778
        k(  186) = (   0.2500000  -0.4330127  -0.1001710), wk =   0.0027778
        k(  187) = (   0.2500000  -0.3367877   0.0000000), wk =   0.0027778
        k(  188) = (   0.2500000  -0.3367877   0.1001710), wk =   0.0027778
        k(  189) = (   0.2500000  -0.3367877   0.2003420), wk =   0.0027778
        k(  190) = (   0.2500000  -0.3367877  -0.2003420), wk =   0.0027778
        k(  191) = (   0.2500000  -0.3367877  -0.1001710), wk =   0.0027778
        k(  192) = (   0.2500000  -0.2405626   0.0000000), wk =   0.0027778
        k(  193) = (   0.2500000  -0.2405626   0.1001710), wk =   0.0027778
        k(  194) = (   0.2500000  -0.2405626   0.2003420), wk =   0.0027778
        k(  195) = (   0.2500000  -0.2405626  -0.2003420), wk =   0.0027778
        k(  196) = (   0.2500000  -0.2405626  -0.1001710), wk =   0.0027778
        k(  197) = (   0.2500000  -0.1443376   0.0000000), wk =   0.0027778
        k(  198) = (   0.2500000  -0.1443376   0.1001710), wk =   0.0027778
        k(  199) = (   0.2500000  -0.1443376   0.2003420), wk =   0.0027778
        k(  200) = (   0.2500000  -0.1443376  -0.2003420), wk =   0.0027778
        k(  201) = (   0.2500000  -0.1443376  -0.1001710), wk =   0.0027778
        k(  202) = (   0.2500000  -0.0481125   0.0000000), wk =   0.0027778
        k(  203) = (   0.2500000  -0.0481125   0.1001710), wk =   0.0027778
        k(  204) = (   0.2500000  -0.0481125   0.2003420), wk =   0.0027778
        k(  205) = (   0.2500000  -0.0481125  -0.2003420), wk =   0.0027778
        k(  206) = (   0.2500000  -0.0481125  -0.1001710), wk =   0.0027778
        k(  207) = (   0.2500000   0.0481125   0.0000000), wk =   0.0027778
        k(  208) = (   0.2500000   0.0481125   0.1001710), wk =   0.0027778
        k(  209) = (   0.2500000   0.0481125   0.2003420), wk =   0.0027778
        k(  210) = (   0.2500000   0.0481125  -0.2003420), wk =   0.0027778
        k(  211) = (   0.2500000   0.0481125  -0.1001710), wk =   0.0027778
        k(  212) = (   0.3333333   0.1924501   0.0000000), wk =   0.0027778
        k(  213) = (   0.3333333   0.1924501   0.1001710), wk =   0.0027778
        k(  214) = (   0.3333333   0.1924501   0.2003420), wk =   0.0027778
        k(  215) = (   0.3333333   0.1924501  -0.2003420), wk =   0.0027778
        k(  216) = (   0.3333333   0.1924501  -0.1001710), wk =   0.0027778
        k(  217) = (   0.3333333   0.2886751   0.0000000), wk =   0.0027778
        k(  218) = (   0.3333333   0.2886751   0.1001710), wk =   0.0027778
        k(  219) = (   0.3333333   0.2886751   0.2003420), wk =   0.0027778
        k(  220) = (   0.3333333   0.2886751  -0.2003420), wk =   0.0027778
        k(  221) = (   0.3333333   0.2886751  -0.1001710), wk =   0.0027778
        k(  222) = (   0.3333333   0.3849002   0.0000000), wk =   0.0027778
        k(  223) = (   0.3333333   0.3849002   0.1001710), wk =   0.0027778
        k(  224) = (   0.3333333   0.3849002   0.2003420), wk =   0.0027778
        k(  225) = (   0.3333333   0.3849002  -0.2003420), wk =   0.0027778
        k(  226) = (   0.3333333   0.3849002  -0.1001710), wk =   0.0027778
        k(  227) = (   0.3333333   0.4811252   0.0000000), wk =   0.0027778
        k(  228) = (   0.3333333   0.4811252   0.1001710), wk =   0.0027778
        k(  229) = (   0.3333333   0.4811252   0.2003420), wk =   0.0027778
        k(  230) = (   0.3333333   0.4811252  -0.2003420), wk =   0.0027778
        k(  231) = (   0.3333333   0.4811252  -0.1001710), wk =   0.0027778
        k(  232) = (   0.3333333   0.5773503   0.0000000), wk =   0.0027778
        k(  233) = (   0.3333333   0.5773503   0.1001710), wk =   0.0027778
        k(  234) = (   0.3333333   0.5773503   0.2003420), wk =   0.0027778
        k(  235) = (   0.3333333   0.5773503  -0.2003420), wk =   0.0027778
        k(  236) = (   0.3333333   0.5773503  -0.1001710), wk =   0.0027778
        k(  237) = (   0.3333333   0.6735753   0.0000000), wk =   0.0027778
        k(  238) = (   0.3333333   0.6735753   0.1001710), wk =   0.0027778
        k(  239) = (   0.3333333   0.6735753   0.2003420), wk =   0.0027778
        k(  240) = (   0.3333333   0.6735753  -0.2003420), wk =   0.0027778
        k(  241) = (   0.3333333   0.6735753  -0.1001710), wk =   0.0027778
        k(  242) = (   0.3333333  -0.3849002   0.0000000), wk =   0.0027778
        k(  243) = (   0.3333333  -0.3849002   0.1001710), wk =   0.0027778
        k(  244) = (   0.3333333  -0.3849002   0.2003420), wk =   0.0027778
        k(  245) = (   0.3333333  -0.3849002  -0.2003420), wk =   0.0027778
        k(  246) = (   0.3333333  -0.3849002  -0.1001710), wk =   0.0027778
        k(  247) = (   0.3333333  -0.2886751   0.0000000), wk =   0.0027778
        k(  248) = (   0.3333333  -0.2886751   0.1001710), wk =   0.0027778
        k(  249) = (   0.3333333  -0.2886751   0.2003420), wk =   0.0027778
        k(  250) = (   0.3333333  -0.2886751  -0.2003420), wk =   0.0027778
        k(  251) = (   0.3333333  -0.2886751  -0.1001710), wk =   0.0027778
        k(  252) = (   0.3333333  -0.1924501   0.0000000), wk =   0.0027778
        k(  253) = (   0.3333333  -0.1924501   0.1001710), wk =   0.0027778
        k(  254) = (   0.3333333  -0.1924501   0.2003420), wk =   0.0027778
        k(  255) = (   0.3333333  -0.1924501  -0.2003420), wk =   0.0027778
        k(  256) = (   0.3333333  -0.1924501  -0.1001710), wk =   0.0027778
        k(  257) = (   0.3333333  -0.0962250   0.0000000), wk =   0.0027778
        k(  258) = (   0.3333333  -0.0962250   0.1001710), wk =   0.0027778
        k(  259) = (   0.3333333  -0.0962250   0.2003420), wk =   0.0027778
        k(  260) = (   0.3333333  -0.0962250  -0.2003420), wk =   0.0027778
        k(  261) = (   0.3333333  -0.0962250  -0.1001710), wk =   0.0027778
        k(  262) = (   0.3333333  -0.0000000   0.0000000), wk =   0.0027778
        k(  263) = (   0.3333333  -0.0000000   0.1001710), wk =   0.0027778
        k(  264) = (   0.3333333  -0.0000000   0.2003420), wk =   0.0027778
        k(  265) = (   0.3333333  -0.0000000  -0.2003420), wk =   0.0027778
        k(  266) = (   0.3333333  -0.0000000  -0.1001710), wk =   0.0027778
        k(  267) = (   0.3333333   0.0962250   0.0000000), wk =   0.0027778
        k(  268) = (   0.3333333   0.0962250   0.1001710), wk =   0.0027778
        k(  269) = (   0.3333333   0.0962250   0.2003420), wk =   0.0027778
        k(  270) = (   0.3333333   0.0962250  -0.2003420), wk =   0.0027778
        k(  271) = (   0.3333333   0.0962250  -0.1001710), wk =   0.0027778
        k(  272) = (   0.4166667   0.2405626   0.0000000), wk =   0.0027778
        k(  273) = (   0.4166667   0.2405626   0.1001710), wk =   0.0027778
        k(  274) = (   0.4166667   0.2405626   0.2003420), wk =   0.0027778
        k(  275) = (   0.4166667   0.2405626  -0.2003420), wk =   0.0027778
        k(  276) = (   0.4166667   0.2405626  -0.1001710), wk =   0.0027778
        k(  277) = (   0.4166667   0.3367877   0.0000000), wk =   0.0027778
        k(  278) = (   0.4166667   0.3367877   0.1001710), wk =   0.0027778
        k(  279) = (   0.4166667   0.3367877   0.2003420), wk =   0.0027778
        k(  280) = (   0.4166667   0.3367877  -0.2003420), wk =   0.0027778
        k(  281) = (   0.4166667   0.3367877  -0.1001710), wk =   0.0027778
        k(  282) = (   0.4166667   0.4330127   0.0000000), wk =   0.0027778
        k(  283) = (   0.4166667   0.4330127   0.1001710), wk =   0.0027778
        k(  284) = (   0.4166667   0.4330127   0.2003420), wk =   0.0027778
        k(  285) = (   0.4166667   0.4330127  -0.2003420), wk =   0.0027778
        k(  286) = (   0.4166667   0.4330127  -0.1001710), wk =   0.0027778
        k(  287) = (   0.4166667   0.5292377   0.0000000), wk =   0.0027778
        k(  288) = (   0.4166667   0.5292377   0.1001710), wk =   0.0027778
        k(  289) = (   0.4166667   0.5292377   0.2003420), wk =   0.0027778
        k(  290) = (   0.4166667   0.5292377  -0.2003420), wk =   0.0027778
        k(  291) = (   0.4166667   0.5292377  -0.1001710), wk =   0.0027778
        k(  292) = (   0.4166667   0.6254628   0.0000000), wk =   0.0027778
        k(  293) = (   0.4166667   0.6254628   0.1001710), wk =   0.0027778
        k(  294) = (   0.4166667   0.6254628   0.2003420), wk =   0.0027778
        k(  295) = (   0.4166667   0.6254628  -0.2003420), wk =   0.0027778
        k(  296) = (   0.4166667   0.6254628  -0.1001710), wk =   0.0027778
        k(  297) = (   0.4166667   0.7216878   0.0000000), wk =   0.0027778
        k(  298) = (   0.4166667   0.7216878   0.1001710), wk =   0.0027778
        k(  299) = (   0.4166667   0.7216878   0.2003420), wk =   0.0027778
        k(  300) = (   0.4166667   0.7216878  -0.2003420), wk =   0.0027778
        k(  301) = (   0.4166667   0.7216878  -0.1001710), wk =   0.0027778
        k(  302) = (   0.4166667  -0.3367877   0.0000000), wk =   0.0027778
        k(  303) = (   0.4166667  -0.3367877   0.1001710), wk =   0.0027778
        k(  304) = (   0.4166667  -0.3367877   0.2003420), wk =   0.0027778
        k(  305) = (   0.4166667  -0.3367877  -0.2003420), wk =   0.0027778
        k(  306) = (   0.4166667  -0.3367877  -0.1001710), wk =   0.0027778
        k(  307) = (   0.4166667  -0.2405626   0.0000000), wk =   0.0027778
        k(  308) = (   0.4166667  -0.2405626   0.1001710), wk =   0.0027778
        k(  309) = (   0.4166667  -0.2405626   0.2003420), wk =   0.0027778
        k(  310) = (   0.4166667  -0.2405626  -0.2003420), wk =   0.0027778
        k(  311) = (   0.4166667  -0.2405626  -0.1001710), wk =   0.0027778
        k(  312) = (   0.4166667  -0.1443376   0.0000000), wk =   0.0027778
        k(  313) = (   0.4166667  -0.1443376   0.1001710), wk =   0.0027778
        k(  314) = (   0.4166667  -0.1443376   0.2003420), wk =   0.0027778
        k(  315) = (   0.4166667  -0.1443376  -0.2003420), wk =   0.0027778
        k(  316) = (   0.4166667  -0.1443376  -0.1001710), wk =   0.0027778
        k(  317) = (   0.4166667  -0.0481125   0.0000000), wk =   0.0027778
        k(  318) = (   0.4166667  -0.0481125   0.1001710), wk =   0.0027778
        k(  319) = (   0.4166667  -0.0481125   0.2003420), wk =   0.0027778
        k(  320) = (   0.4166667  -0.0481125  -0.2003420), wk =   0.0027778
        k(  321) = (   0.4166667  -0.0481125  -0.1001710), wk =   0.0027778
        k(  322) = (   0.4166667   0.0481125   0.0000000), wk =   0.0027778
        k(  323) = (   0.4166667   0.0481125   0.1001710), wk =   0.0027778
        k(  324) = (   0.4166667   0.0481125   0.2003420), wk =   0.0027778
        k(  325) = (   0.4166667   0.0481125  -0.2003420), wk =   0.0027778
        k(  326) = (   0.4166667   0.0481125  -0.1001710), wk =   0.0027778
        k(  327) = (   0.4166667   0.1443376   0.0000000), wk =   0.0027778
        k(  328) = (   0.4166667   0.1443376   0.1001710), wk =   0.0027778
        k(  329) = (   0.4166667   0.1443376   0.2003420), wk =   0.0027778
        k(  330) = (   0.4166667   0.1443376  -0.2003420), wk =   0.0027778
        k(  331) = (   0.4166667   0.1443376  -0.1001710), wk =   0.0027778
        k(  332) = (  -0.5000000  -0.2886751   0.0000000), wk =   0.0013889
        k(  333) = (  -0.5000000  -0.2886751   0.1001710), wk =   0.0027778
        k(  334) = (  -0.5000000  -0.2886751   0.2003420), wk =   0.0027778
        k(  335) = (  -0.5000000  -0.1924501   0.0000000), wk =   0.0027778
        k(  336) = (  -0.5000000  -0.1924501   0.1001710), wk =   0.0027778
        k(  337) = (  -0.5000000  -0.1924501   0.2003420), wk =   0.0027778
        k(  338) = (  -0.5000000  -0.1924501  -0.2003420), wk =   0.0027778
        k(  339) = (  -0.5000000  -0.1924501  -0.1001710), wk =   0.0027778
        k(  340) = (  -0.5000000  -0.0962250   0.0000000), wk =   0.0027778
        k(  341) = (  -0.5000000  -0.0962250   0.1001710), wk =   0.0027778
        k(  342) = (  -0.5000000  -0.0962250   0.2003420), wk =   0.0027778
        k(  343) = (  -0.5000000  -0.0962250  -0.2003420), wk =   0.0027778
        k(  344) = (  -0.5000000  -0.0962250  -0.1001710), wk =   0.0027778
        k(  345) = (  -0.5000000   0.0000000   0.0000000), wk =   0.0027778
        k(  346) = (  -0.5000000   0.0000000   0.1001710), wk =   0.0027778
        k(  347) = (  -0.5000000   0.0000000   0.2003420), wk =   0.0027778
        k(  348) = (  -0.5000000   0.0000000  -0.2003420), wk =   0.0027778
        k(  349) = (  -0.5000000   0.0000000  -0.1001710), wk =   0.0027778
        k(  350) = (  -0.5000000   0.0962250   0.0000000), wk =   0.0027778
        k(  351) = (  -0.5000000   0.0962250   0.1001710), wk =   0.0027778
        k(  352) = (  -0.5000000   0.0962250   0.2003420), wk =   0.0027778
        k(  353) = (  -0.5000000   0.0962250  -0.2003420), wk =   0.0027778
        k(  354) = (  -0.5000000   0.0962250  -0.1001710), wk =   0.0027778
        k(  355) = (  -0.5000000   0.1924501   0.0000000), wk =   0.0027778
        k(  356) = (  -0.5000000   0.1924501   0.1001710), wk =   0.0027778
        k(  357) = (  -0.5000000   0.1924501   0.2003420), wk =   0.0027778
        k(  358) = (  -0.5000000   0.1924501  -0.2003420), wk =   0.0027778
        k(  359) = (  -0.5000000   0.1924501  -0.1001710), wk =   0.0027778
        k(  360) = (  -0.5000000  -0.8660254   0.0000000), wk =   0.0013889
        k(  361) = (  -0.5000000  -0.8660254   0.1001710), wk =   0.0027778
        k(  362) = (  -0.5000000  -0.8660254   0.2003420), wk =   0.0027778

                       cryst. coord.
        k(    1) = (   0.0000000   0.0000000   0.0000000), wk =   0.0013889
        k(    2) = (   0.0000000   0.0000000   0.2000000), wk =   0.0027778
        k(    3) = (   0.0000000   0.0000000   0.4000000), wk =   0.0027778
        k(    4) = (   0.0000000   0.0833333   0.0000000), wk =   0.0027778
        k(    5) = (   0.0000000   0.0833333   0.2000000), wk =   0.0027778
        k(    6) = (   0.0000000   0.0833333   0.4000000), wk =   0.0027778
        k(    7) = (   0.0000000   0.0833333  -0.4000000), wk =   0.0027778
        k(    8) = (   0.0000000   0.0833333  -0.2000000), wk =   0.0027778
        k(    9) = (   0.0000000   0.1666667   0.0000000), wk =   0.0027778
        k(   10) = (   0.0000000   0.1666667   0.2000000), wk =   0.0027778
        k(   11) = (   0.0000000   0.1666667   0.4000000), wk =   0.0027778
        k(   12) = (   0.0000000   0.1666667  -0.4000000), wk =   0.0027778
        k(   13) = (   0.0000000   0.1666667  -0.2000000), wk =   0.0027778
        k(   14) = (   0.0000000   0.2500000   0.0000000), wk =   0.0027778
        k(   15) = (   0.0000000   0.2500000   0.2000000), wk =   0.0027778
        k(   16) = (   0.0000000   0.2500000   0.4000000), wk =   0.0027778
        k(   17) = (   0.0000000   0.2500000  -0.4000000), wk =   0.0027778
        k(   18) = (   0.0000000   0.2500000  -0.2000000), wk =   0.0027778
        k(   19) = (   0.0000000   0.3333333   0.0000000), wk =   0.0027778
        k(   20) = (   0.0000000   0.3333333   0.2000000), wk =   0.0027778
        k(   21) = (   0.0000000   0.3333333   0.4000000), wk =   0.0027778
        k(   22) = (   0.0000000   0.3333333  -0.4000000), wk =   0.0027778
        k(   23) = (   0.0000000   0.3333333  -0.2000000), wk =   0.0027778
        k(   24) = (   0.0000000   0.4166667   0.0000000), wk =   0.0027778
        k(   25) = (   0.0000000   0.4166667   0.2000000), wk =   0.0027778
        k(   26) = (   0.0000000   0.4166667   0.4000000), wk =   0.0027778
        k(   27) = (   0.0000000   0.4166667  -0.4000000), wk =   0.0027778
        k(   28) = (   0.0000000   0.4166667  -0.2000000), wk =   0.0027778
        k(   29) = (   0.0000000  -0.5000000   0.0000000), wk =   0.0013889
        k(   30) = (   0.0000000  -0.5000000   0.2000000), wk =   0.0027778
        k(   31) = (   0.0000000  -0.5000000   0.4000000), wk =   0.0027778
        k(   32) = (   0.0833333  -0.0000000   0.0000000), wk =   0.0027778
        k(   33) = (   0.0833333  -0.0000000   0.2000000), wk =   0.0027778
        k(   34) = (   0.0833333  -0.0000000   0.4000000), wk =   0.0027778
        k(   35) = (   0.0833333  -0.0000000  -0.4000000), wk =   0.0027778
        k(   36) = (   0.0833333  -0.0000000  -0.2000000), wk =   0.0027778
        k(   37) = (   0.0833333   0.0833333   0.0000000), wk =   0.0027778
        k(   38) = (   0.0833333   0.0833333   0.2000000), wk =   0.0027778
        k(   39) = (   0.0833333   0.0833333   0.4000000), wk =   0.0027778
        k(   40) = (   0.0833333   0.0833333  -0.4000000), wk =   0.0027778
        k(   41) = (   0.0833333   0.0833333  -0.2000000), wk =   0.0027778
        k(   42) = (   0.0833333   0.1666667   0.0000000), wk =   0.0027778
        k(   43) = (   0.0833333   0.1666667   0.2000000), wk =   0.0027778
        k(   44) = (   0.0833333   0.1666667   0.4000000), wk =   0.0027778
        k(   45) = (   0.0833333   0.1666667  -0.4000000), wk =   0.0027778
        k(   46) = (   0.0833333   0.1666667  -0.2000000), wk =   0.0027778
        k(   47) = (   0.0833333   0.2500000   0.0000000), wk =   0.0027778
        k(   48) = (   0.0833333   0.2500000   0.2000000), wk =   0.0027778
        k(   49) = (   0.0833333   0.2500000   0.4000000), wk =   0.0027778
        k(   50) = (   0.0833333   0.2500000  -0.4000000), wk =   0.0027778
        k(   51) = (   0.0833333   0.2500000  -0.2000000), wk =   0.0027778
        k(   52) = (   0.0833333   0.3333333   0.0000000), wk =   0.0027778
        k(   53) = (   0.0833333   0.3333333   0.2000000), wk =   0.0027778
        k(   54) = (   0.0833333   0.3333333   0.4000000), wk =   0.0027778
        k(   55) = (   0.0833333   0.3333333  -0.4000000), wk =   0.0027778
        k(   56) = (   0.0833333   0.3333333  -0.2000000), wk =   0.0027778
        k(   57) = (   0.0833333   0.4166667   0.0000000), wk =   0.0027778
        k(   58) = (   0.0833333   0.4166667   0.2000000), wk =   0.0027778
        k(   59) = (   0.0833333   0.4166667   0.4000000), wk =   0.0027778
        k(   60) = (   0.0833333   0.4166667  -0.4000000), wk =   0.0027778
        k(   61) = (   0.0833333   0.4166667  -0.2000000), wk =   0.0027778
        k(   62) = (   0.0833333  -0.5000000   0.0000000), wk =   0.0027778
        k(   63) = (   0.0833333  -0.5000000   0.2000000), wk =   0.0027778
        k(   64) = (   0.0833333  -0.5000000   0.4000000), wk =   0.0027778
        k(   65) = (   0.0833333  -0.5000000  -0.4000000), wk =   0.0027778
        k(   66) = (   0.0833333  -0.5000000  -0.2000000), wk =   0.0027778
        k(   67) = (   0.0833333  -0.4166667   0.0000000), wk =   0.0027778
        k(   68) = (   0.0833333  -0.4166667   0.2000000), wk =   0.0027778
        k(   69) = (   0.0833333  -0.4166667   0.4000000), wk =   0.0027778
        k(   70) = (   0.0833333  -0.4166667  -0.4000000), wk =   0.0027778
        k(   71) = (   0.0833333  -0.4166667  -0.2000000), wk =   0.0027778
        k(   72) = (   0.0833333  -0.3333333   0.0000000), wk =   0.0027778
        k(   73) = (   0.0833333  -0.3333333   0.2000000), wk =   0.0027778
        k(   74) = (   0.0833333  -0.3333333   0.4000000), wk =   0.0027778
        k(   75) = (   0.0833333  -0.3333333  -0.4000000), wk =   0.0027778
        k(   76) = (   0.0833333  -0.3333333  -0.2000000), wk =   0.0027778
        k(   77) = (   0.0833333  -0.2500000   0.0000000), wk =   0.0027778
        k(   78) = (   0.0833333  -0.2500000   0.2000000), wk =   0.0027778
        k(   79) = (   0.0833333  -0.2500000   0.4000000), wk =   0.0027778
        k(   80) = (   0.0833333  -0.2500000  -0.4000000), wk =   0.0027778
        k(   81) = (   0.0833333  -0.2500000  -0.2000000), wk =   0.0027778
        k(   82) = (   0.0833333  -0.1666667   0.0000000), wk =   0.0027778
        k(   83) = (   0.0833333  -0.1666667   0.2000000), wk =   0.0027778
        k(   84) = (   0.0833333  -0.1666667   0.4000000), wk =   0.0027778
        k(   85) = (   0.0833333  -0.1666667  -0.4000000), wk =   0.0027778
        k(   86) = (   0.0833333  -0.1666667  -0.2000000), wk =   0.0027778
        k(   87) = (   0.0833333  -0.0833333   0.0000000), wk =   0.0027778
        k(   88) = (   0.0833333  -0.0833333   0.2000000), wk =   0.0027778
        k(   89) = (   0.0833333  -0.0833333   0.4000000), wk =   0.0027778
        k(   90) = (   0.0833333  -0.0833333  -0.4000000), wk =   0.0027778
        k(   91) = (   0.0833333  -0.0833333  -0.2000000), wk =   0.0027778
        k(   92) = (   0.1666667  -0.0000000   0.0000000), wk =   0.0027778
        k(   93) = (   0.1666667  -0.0000000   0.2000000), wk =   0.0027778
        k(   94) = (   0.1666667  -0.0000000   0.4000000), wk =   0.0027778
        k(   95) = (   0.1666667  -0.0000000  -0.4000000), wk =   0.0027778
        k(   96) = (   0.1666667  -0.0000000  -0.2000000), wk =   0.0027778
        k(   97) = (   0.1666667   0.0833333   0.0000000), wk =   0.0027778
        k(   98) = (   0.1666667   0.0833333   0.2000000), wk =   0.0027778
        k(   99) = (   0.1666667   0.0833333   0.4000000), wk =   0.0027778
        k(  100) = (   0.1666667   0.0833333  -0.4000000), wk =   0.0027778
        k(  101) = (   0.1666667   0.0833333  -0.2000000), wk =   0.0027778
        k(  102) = (   0.1666667   0.1666667   0.0000000), wk =   0.0027778
        k(  103) = (   0.1666667   0.1666667   0.2000000), wk =   0.0027778
        k(  104) = (   0.1666667   0.1666667   0.4000000), wk =   0.0027778
        k(  105) = (   0.1666667   0.1666667  -0.4000000), wk =   0.0027778
        k(  106) = (   0.1666667   0.1666667  -0.2000000), wk =   0.0027778
        k(  107) = (   0.1666667   0.2500000   0.0000000), wk =   0.0027778
        k(  108) = (   0.1666667   0.2500000   0.2000000), wk =   0.0027778
        k(  109) = (   0.1666667   0.2500000   0.4000000), wk =   0.0027778
        k(  110) = (   0.1666667   0.2500000  -0.4000000), wk =   0.0027778
        k(  111) = (   0.1666667   0.2500000  -0.2000000), wk =   0.0027778
        k(  112) = (   0.1666667   0.3333333   0.0000000), wk =   0.0027778
        k(  113) = (   0.1666667   0.3333333   0.2000000), wk =   0.0027778
        k(  114) = (   0.1666667   0.3333333   0.4000000), wk =   0.0027778
        k(  115) = (   0.1666667   0.3333333  -0.4000000), wk =   0.0027778
        k(  116) = (   0.1666667   0.3333333  -0.2000000), wk =   0.0027778
        k(  117) = (   0.1666667   0.4166667   0.0000000), wk =   0.0027778
        k(  118) = (   0.1666667   0.4166667   0.2000000), wk =   0.0027778
        k(  119) = (   0.1666667   0.4166667   0.4000000), wk =   0.0027778
        k(  120) = (   0.1666667   0.4166667  -0.4000000), wk =   0.0027778
        k(  121) = (   0.1666667   0.4166667  -0.2000000), wk =   0.0027778
        k(  122) = (   0.1666667  -0.5000000   0.0000000), wk =   0.0027778
        k(  123) = (   0.1666667  -0.5000000   0.2000000), wk =   0.0027778
        k(  124) = (   0.1666667  -0.5000000   0.4000000), wk =   0.0027778
        k(  125) = (   0.1666667  -0.5000000  -0.4000000), wk =   0.0027778
        k(  126) = (   0.1666667  -0.5000000  -0.2000000), wk =   0.0027778
        k(  127) = (   0.1666667  -0.4166667   0.0000000), wk =   0.0027778
        k(  128) = (   0.1666667  -0.4166667   0.2000000), wk =   0.0027778
        k(  129) = (   0.1666667  -0.4166667   0.4000000), wk =   0.0027778
        k(  130) = (   0.1666667  -0.4166667  -0.4000000), wk =   0.0027778
        k(  131) = (   0.1666667  -0.4166667  -0.2000000), wk =   0.0027778
        k(  132) = (   0.1666667  -0.3333333   0.0000000), wk =   0.0027778
        k(  133) = (   0.1666667  -0.3333333   0.2000000), wk =   0.0027778
        k(  134) = (   0.1666667  -0.3333333   0.4000000), wk =   0.0027778
        k(  135) = (   0.1666667  -0.3333333  -0.4000000), wk =   0.0027778
        k(  136) = (   0.1666667  -0.3333333  -0.2000000), wk =   0.0027778
        k(  137) = (   0.1666667  -0.2500000   0.0000000), wk =   0.0027778
        k(  138) = (   0.1666667  -0.2500000   0.2000000), wk =   0.0027778
        k(  139) = (   0.1666667  -0.2500000   0.4000000), wk =   0.0027778
        k(  140) = (   0.1666667  -0.2500000  -0.4000000), wk =   0.0027778
        k(  141) = (   0.1666667  -0.2500000  -0.2000000), wk =   0.0027778
        k(  142) = (   0.1666667  -0.1666667   0.0000000), wk =   0.0027778
        k(  143) = (   0.1666667  -0.1666667   0.2000000), wk =   0.0027778
        k(  144) = (   0.1666667  -0.1666667   0.4000000), wk =   0.0027778
        k(  145) = (   0.1666667  -0.1666667  -0.4000000), wk =   0.0027778
        k(  146) = (   0.1666667  -0.1666667  -0.2000000), wk =   0.0027778
        k(  147) = (   0.1666667  -0.0833333   0.0000000), wk =   0.0027778
        k(  148) = (   0.1666667  -0.0833333   0.2000000), wk =   0.0027778
        k(  149) = (   0.1666667  -0.0833333   0.4000000), wk =   0.0027778
        k(  150) = (   0.1666667  -0.0833333  -0.4000000), wk =   0.0027778
        k(  151) = (   0.1666667  -0.0833333  -0.2000000), wk =   0.0027778
        k(  152) = (   0.2500000   0.0000000   0.0000000), wk =   0.0027778
        k(  153) = (   0.2500000   0.0000000   0.2000000), wk =   0.0027778
        k(  154) = (   0.2500000   0.0000000   0.4000000), wk =   0.0027778
        k(  155) = (   0.2500000   0.0000000  -0.4000000), wk =   0.0027778
        k(  156) = (   0.2500000   0.0000000  -0.2000000), wk =   0.0027778
        k(  157) = (   0.2500000   0.0833333   0.0000000), wk =   0.0027778
        k(  158) = (   0.2500000   0.0833333   0.2000000), wk =   0.0027778
        k(  159) = (   0.2500000   0.0833333   0.4000000), wk =   0.0027778
        k(  160) = (   0.2500000   0.0833333  -0.4000000), wk =   0.0027778
        k(  161) = (   0.2500000   0.0833333  -0.2000000), wk =   0.0027778
        k(  162) = (   0.2500000   0.1666667   0.0000000), wk =   0.0027778
        k(  163) = (   0.2500000   0.1666667   0.2000000), wk =   0.0027778
        k(  164) = (   0.2500000   0.1666667   0.4000000), wk =   0.0027778
        k(  165) = (   0.2500000   0.1666667  -0.4000000), wk =   0.0027778
        k(  166) = (   0.2500000   0.1666667  -0.2000000), wk =   0.0027778
        k(  167) = (   0.2500000   0.2500000   0.0000000), wk =   0.0027778
        k(  168) = (   0.2500000   0.2500000   0.2000000), wk =   0.0027778
        k(  169) = (   0.2500000   0.2500000   0.4000000), wk =   0.0027778
        k(  170) = (   0.2500000   0.2500000  -0.4000000), wk =   0.0027778
        k(  171) = (   0.2500000   0.2500000  -0.2000000), wk =   0.0027778
        k(  172) = (   0.2500000   0.3333333   0.0000000), wk =   0.0027778
        k(  173) = (   0.2500000   0.3333333   0.2000000), wk =   0.0027778
        k(  174) = (   0.2500000   0.3333333   0.4000000), wk =   0.0027778
        k(  175) = (   0.2500000   0.3333333  -0.4000000), wk =   0.0027778
        k(  176) = (   0.2500000   0.3333333  -0.2000000), wk =   0.0027778
        k(  177) = (   0.2500000   0.4166667   0.0000000), wk =   0.0027778
        k(  178) = (   0.2500000   0.4166667   0.2000000), wk =   0.0027778
        k(  179) = (   0.2500000   0.4166667   0.4000000), wk =   0.0027778
        k(  180) = (   0.2500000   0.4166667  -0.4000000), wk =   0.0027778
        k(  181) = (   0.2500000   0.4166667  -0.2000000), wk =   0.0027778
        k(  182) = (   0.2500000  -0.5000000   0.0000000), wk =   0.0027778
        k(  183) = (   0.2500000  -0.5000000   0.2000000), wk =   0.0027778
        k(  184) = (   0.2500000  -0.5000000   0.4000000), wk =   0.0027778
        k(  185) = (   0.2500000  -0.5000000  -0.4000000), wk =   0.0027778
        k(  186) = (   0.2500000  -0.5000000  -0.2000000), wk =   0.0027778
        k(  187) = (   0.2500000  -0.4166667   0.0000000), wk =   0.0027778
        k(  188) = (   0.2500000  -0.4166667   0.2000000), wk =   0.0027778
        k(  189) = (   0.2500000  -0.4166667   0.4000000), wk =   0.0027778
        k(  190) = (   0.2500000  -0.4166667  -0.4000000), wk =   0.0027778
        k(  191) = (   0.2500000  -0.4166667  -0.2000000), wk =   0.0027778
        k(  192) = (   0.2500000  -0.3333333   0.0000000), wk =   0.0027778
        k(  193) = (   0.2500000  -0.3333333   0.2000000), wk =   0.0027778
        k(  194) = (   0.2500000  -0.3333333   0.4000000), wk =   0.0027778
        k(  195) = (   0.2500000  -0.3333333  -0.4000000), wk =   0.0027778
        k(  196) = (   0.2500000  -0.3333333  -0.2000000), wk =   0.0027778
        k(  197) = (   0.2500000  -0.2500000   0.0000000), wk =   0.0027778
        k(  198) = (   0.2500000  -0.2500000   0.2000000), wk =   0.0027778
        k(  199) = (   0.2500000  -0.2500000   0.4000000), wk =   0.0027778
        k(  200) = (   0.2500000  -0.2500000  -0.4000000), wk =   0.0027778
        k(  201) = (   0.2500000  -0.2500000  -0.2000000), wk =   0.0027778
        k(  202) = (   0.2500000  -0.1666667   0.0000000), wk =   0.0027778
        k(  203) = (   0.2500000  -0.1666667   0.2000000), wk =   0.0027778
        k(  204) = (   0.2500000  -0.1666667   0.4000000), wk =   0.0027778
        k(  205) = (   0.2500000  -0.1666667  -0.4000000), wk =   0.0027778
        k(  206) = (   0.2500000  -0.1666667  -0.2000000), wk =   0.0027778
        k(  207) = (   0.2500000  -0.0833333   0.0000000), wk =   0.0027778
        k(  208) = (   0.2500000  -0.0833333   0.2000000), wk =   0.0027778
        k(  209) = (   0.2500000  -0.0833333   0.4000000), wk =   0.0027778
        k(  210) = (   0.2500000  -0.0833333  -0.4000000), wk =   0.0027778
        k(  211) = (   0.2500000  -0.0833333  -0.2000000), wk =   0.0027778
        k(  212) = (   0.3333333  -0.0000000   0.0000000), wk =   0.0027778
        k(  213) = (   0.3333333  -0.0000000   0.2000000), wk =   0.0027778
        k(  214) = (   0.3333333  -0.0000000   0.4000000), wk =   0.0027778
        k(  215) = (   0.3333333  -0.0000000  -0.4000000), wk =   0.0027778
        k(  216) = (   0.3333333  -0.0000000  -0.2000000), wk =   0.0027778
        k(  217) = (   0.3333333   0.0833333   0.0000000), wk =   0.0027778
        k(  218) = (   0.3333333   0.0833333   0.2000000), wk =   0.0027778
        k(  219) = (   0.3333333   0.0833333   0.4000000), wk =   0.0027778
        k(  220) = (   0.3333333   0.0833333  -0.4000000), wk =   0.0027778
        k(  221) = (   0.3333333   0.0833333  -0.2000000), wk =   0.0027778
        k(  222) = (   0.3333333   0.1666667   0.0000000), wk =   0.0027778
        k(  223) = (   0.3333333   0.1666667   0.2000000), wk =   0.0027778
        k(  224) = (   0.3333333   0.1666667   0.4000000), wk =   0.0027778
        k(  225) = (   0.3333333   0.1666667  -0.4000000), wk =   0.0027778
        k(  226) = (   0.3333333   0.1666667  -0.2000000), wk =   0.0027778
        k(  227) = (   0.3333333   0.2500000   0.0000000), wk =   0.0027778
        k(  228) = (   0.3333333   0.2500000   0.2000000), wk =   0.0027778
        k(  229) = (   0.3333333   0.2500000   0.4000000), wk =   0.0027778
        k(  230) = (   0.3333333   0.2500000  -0.4000000), wk =   0.0027778
        k(  231) = (   0.3333333   0.2500000  -0.2000000), wk =   0.0027778
        k(  232) = (   0.3333333   0.3333333   0.0000000), wk =   0.0027778
        k(  233) = (   0.3333333   0.3333333   0.2000000), wk =   0.0027778
        k(  234) = (   0.3333333   0.3333333   0.4000000), wk =   0.0027778
        k(  235) = (   0.3333333   0.3333333  -0.4000000), wk =   0.0027778
        k(  236) = (   0.3333333   0.3333333  -0.2000000), wk =   0.0027778
        k(  237) = (   0.3333333   0.4166667   0.0000000), wk =   0.0027778
        k(  238) = (   0.3333333   0.4166667   0.2000000), wk =   0.0027778
        k(  239) = (   0.3333333   0.4166667   0.4000000), wk =   0.0027778
        k(  240) = (   0.3333333   0.4166667  -0.4000000), wk =   0.0027778
        k(  241) = (   0.3333333   0.4166667  -0.2000000), wk =   0.0027778
        k(  242) = (   0.3333333  -0.5000000   0.0000000), wk =   0.0027778
        k(  243) = (   0.3333333  -0.5000000   0.2000000), wk =   0.0027778
        k(  244) = (   0.3333333  -0.5000000   0.4000000), wk =   0.0027778
        k(  245) = (   0.3333333  -0.5000000  -0.4000000), wk =   0.0027778
        k(  246) = (   0.3333333  -0.5000000  -0.2000000), wk =   0.0027778
        k(  247) = (   0.3333333  -0.4166667   0.0000000), wk =   0.0027778
        k(  248) = (   0.3333333  -0.4166667   0.2000000), wk =   0.0027778
        k(  249) = (   0.3333333  -0.4166667   0.4000000), wk =   0.0027778
        k(  250) = (   0.3333333  -0.4166667  -0.4000000), wk =   0.0027778
        k(  251) = (   0.3333333  -0.4166667  -0.2000000), wk =   0.0027778
        k(  252) = (   0.3333333  -0.3333333   0.0000000), wk =   0.0027778
        k(  253) = (   0.3333333  -0.3333333   0.2000000), wk =   0.0027778
        k(  254) = (   0.3333333  -0.3333333   0.4000000), wk =   0.0027778
        k(  255) = (   0.3333333  -0.3333333  -0.4000000), wk =   0.0027778
        k(  256) = (   0.3333333  -0.3333333  -0.2000000), wk =   0.0027778
        k(  257) = (   0.3333333  -0.2500000   0.0000000), wk =   0.0027778
        k(  258) = (   0.3333333  -0.2500000   0.2000000), wk =   0.0027778
        k(  259) = (   0.3333333  -0.2500000   0.4000000), wk =   0.0027778
        k(  260) = (   0.3333333  -0.2500000  -0.4000000), wk =   0.0027778
        k(  261) = (   0.3333333  -0.2500000  -0.2000000), wk =   0.0027778
        k(  262) = (   0.3333333  -0.1666667   0.0000000), wk =   0.0027778
        k(  263) = (   0.3333333  -0.1666667   0.2000000), wk =   0.0027778
        k(  264) = (   0.3333333  -0.1666667   0.4000000), wk =   0.0027778
        k(  265) = (   0.3333333  -0.1666667  -0.4000000), wk =   0.0027778
        k(  266) = (   0.3333333  -0.1666667  -0.2000000), wk =   0.0027778
        k(  267) = (   0.3333333  -0.0833333   0.0000000), wk =   0.0027778
        k(  268) = (   0.3333333  -0.0833333   0.2000000), wk =   0.0027778
        k(  269) = (   0.3333333  -0.0833333   0.4000000), wk =   0.0027778
        k(  270) = (   0.3333333  -0.0833333  -0.4000000), wk =   0.0027778
        k(  271) = (   0.3333333  -0.0833333  -0.2000000), wk =   0.0027778
        k(  272) = (   0.4166667  -0.0000000   0.0000000), wk =   0.0027778
        k(  273) = (   0.4166667  -0.0000000   0.2000000), wk =   0.0027778
        k(  274) = (   0.4166667  -0.0000000   0.4000000), wk =   0.0027778
        k(  275) = (   0.4166667  -0.0000000  -0.4000000), wk =   0.0027778
        k(  276) = (   0.4166667  -0.0000000  -0.2000000), wk =   0.0027778
        k(  277) = (   0.4166667   0.0833333   0.0000000), wk =   0.0027778
        k(  278) = (   0.4166667   0.0833333   0.2000000), wk =   0.0027778
        k(  279) = (   0.4166667   0.0833333   0.4000000), wk =   0.0027778
        k(  280) = (   0.4166667   0.0833333  -0.4000000), wk =   0.0027778
        k(  281) = (   0.4166667   0.0833333  -0.2000000), wk =   0.0027778
        k(  282) = (   0.4166667   0.1666667   0.0000000), wk =   0.0027778
        k(  283) = (   0.4166667   0.1666667   0.2000000), wk =   0.0027778
        k(  284) = (   0.4166667   0.1666667   0.4000000), wk =   0.0027778
        k(  285) = (   0.4166667   0.1666667  -0.4000000), wk =   0.0027778
        k(  286) = (   0.4166667   0.1666667  -0.2000000), wk =   0.0027778
        k(  287) = (   0.4166667   0.2500000   0.0000000), wk =   0.0027778
        k(  288) = (   0.4166667   0.2500000   0.2000000), wk =   0.0027778
        k(  289) = (   0.4166667   0.2500000   0.4000000), wk =   0.0027778
        k(  290) = (   0.4166667   0.2500000  -0.4000000), wk =   0.0027778
        k(  291) = (   0.4166667   0.2500000  -0.2000000), wk =   0.0027778
        k(  292) = (   0.4166667   0.3333333   0.0000000), wk =   0.0027778
        k(  293) = (   0.4166667   0.3333333   0.2000000), wk =   0.0027778
        k(  294) = (   0.4166667   0.3333333   0.4000000), wk =   0.0027778
        k(  295) = (   0.4166667   0.3333333  -0.4000000), wk =   0.0027778
        k(  296) = (   0.4166667   0.3333333  -0.2000000), wk =   0.0027778
        k(  297) = (   0.4166667   0.4166667   0.0000000), wk =   0.0027778
        k(  298) = (   0.4166667   0.4166667   0.2000000), wk =   0.0027778
        k(  299) = (   0.4166667   0.4166667   0.4000000), wk =   0.0027778
        k(  300) = (   0.4166667   0.4166667  -0.4000000), wk =   0.0027778
        k(  301) = (   0.4166667   0.4166667  -0.2000000), wk =   0.0027778
        k(  302) = (   0.4166667  -0.5000000   0.0000000), wk =   0.0027778
        k(  303) = (   0.4166667  -0.5000000   0.2000000), wk =   0.0027778
        k(  304) = (   0.4166667  -0.5000000   0.4000000), wk =   0.0027778
        k(  305) = (   0.4166667  -0.5000000  -0.4000000), wk =   0.0027778
        k(  306) = (   0.4166667  -0.5000000  -0.2000000), wk =   0.0027778
        k(  307) = (   0.4166667  -0.4166667   0.0000000), wk =   0.0027778
        k(  308) = (   0.4166667  -0.4166667   0.2000000), wk =   0.0027778
        k(  309) = (   0.4166667  -0.4166667   0.4000000), wk =   0.0027778
        k(  310) = (   0.4166667  -0.4166667  -0.4000000), wk =   0.0027778
        k(  311) = (   0.4166667  -0.4166667  -0.2000000), wk =   0.0027778
        k(  312) = (   0.4166667  -0.3333333   0.0000000), wk =   0.0027778
        k(  313) = (   0.4166667  -0.3333333   0.2000000), wk =   0.0027778
        k(  314) = (   0.4166667  -0.3333333   0.4000000), wk =   0.0027778
        k(  315) = (   0.4166667  -0.3333333  -0.4000000), wk =   0.0027778
        k(  316) = (   0.4166667  -0.3333333  -0.2000000), wk =   0.0027778
        k(  317) = (   0.4166667  -0.2500000   0.0000000), wk =   0.0027778
        k(  318) = (   0.4166667  -0.2500000   0.2000000), wk =   0.0027778
        k(  319) = (   0.4166667  -0.2500000   0.4000000), wk =   0.0027778
        k(  320) = (   0.4166667  -0.2500000  -0.4000000), wk =   0.0027778
        k(  321) = (   0.4166667  -0.2500000  -0.2000000), wk =   0.0027778
        k(  322) = (   0.4166667  -0.1666667   0.0000000), wk =   0.0027778
        k(  323) = (   0.4166667  -0.1666667   0.2000000), wk =   0.0027778
        k(  324) = (   0.4166667  -0.1666667   0.4000000), wk =   0.0027778
        k(  325) = (   0.4166667  -0.1666667  -0.4000000), wk =   0.0027778
        k(  326) = (   0.4166667  -0.1666667  -0.2000000), wk =   0.0027778
        k(  327) = (   0.4166667  -0.0833333   0.0000000), wk =   0.0027778
        k(  328) = (   0.4166667  -0.0833333   0.2000000), wk =   0.0027778
        k(  329) = (   0.4166667  -0.0833333   0.4000000), wk =   0.0027778
        k(  330) = (   0.4166667  -0.0833333  -0.4000000), wk =   0.0027778
        k(  331) = (   0.4166667  -0.0833333  -0.2000000), wk =   0.0027778
        k(  332) = (  -0.5000000   0.0000000   0.0000000), wk =   0.0013889
        k(  333) = (  -0.5000000   0.0000000   0.2000000), wk =   0.0027778
        k(  334) = (  -0.5000000   0.0000000   0.4000000), wk =   0.0027778
        k(  335) = (  -0.5000000   0.0833333   0.0000000), wk =   0.0027778
        k(  336) = (  -0.5000000   0.0833333   0.2000000), wk =   0.0027778
        k(  337) = (  -0.5000000   0.0833333   0.4000000), wk =   0.0027778
        k(  338) = (  -0.5000000   0.0833333  -0.4000000), wk =   0.0027778
        k(  339) = (  -0.5000000   0.0833333  -0.2000000), wk =   0.0027778
        k(  340) = (  -0.5000000   0.1666667   0.0000000), wk =   0.0027778
        k(  341) = (  -0.5000000   0.1666667   0.2000000), wk =   0.0027778
        k(  342) = (  -0.5000000   0.1666667   0.4000000), wk =   0.0027778
        k(  343) = (  -0.5000000   0.1666667  -0.4000000), wk =   0.0027778
        k(  344) = (  -0.5000000   0.1666667  -0.2000000), wk =   0.0027778
        k(  345) = (  -0.5000000   0.2500000   0.0000000), wk =   0.0027778
        k(  346) = (  -0.5000000   0.2500000   0.2000000), wk =   0.0027778
        k(  347) = (  -0.5000000   0.2500000   0.4000000), wk =   0.0027778
        k(  348) = (  -0.5000000   0.2500000  -0.4000000), wk =   0.0027778
        k(  349) = (  -0.5000000   0.2500000  -0.2000000), wk =   0.0027778
        k(  350) = (  -0.5000000   0.3333333   0.0000000), wk =   0.0027778
        k(  351) = (  -0.5000000   0.3333333   0.2000000), wk =   0.0027778
        k(  352) = (  -0.5000000   0.3333333   0.4000000), wk =   0.0027778
        k(  353) = (  -0.5000000   0.3333333  -0.4000000), wk =   0.0027778
        k(  354) = (  -0.5000000   0.3333333  -0.2000000), wk =   0.0027778
        k(  355) = (  -0.5000000   0.4166667   0.0000000), wk =   0.0027778
        k(  356) = (  -0.5000000   0.4166667   0.2000000), wk =   0.0027778
        k(  357) = (  -0.5000000   0.4166667   0.4000000), wk =   0.0027778
        k(  358) = (  -0.5000000   0.4166667  -0.4000000), wk =   0.0027778
        k(  359) = (  -0.5000000   0.4166667  -0.2000000), wk =   0.0027778
        k(  360) = (  -0.5000000  -0.5000000   0.0000000), wk =   0.0013889
        k(  361) = (  -0.5000000  -0.5000000   0.2000000), wk =   0.0027778
        k(  362) = (  -0.5000000  -0.5000000   0.4000000), wk =   0.0027778

     Dense  grid:    33091 G-vectors     FFT dimensions: (  36,  36,  72)

     Dynamical RAM for                 wfc:       0.73 MB

     Dynamical RAM for     wfc (w. buffer):     105.91 MB

     Dynamical RAM for           str. fact:       0.17 MB

     Dynamical RAM for           local pot:       0.00 MB

     Dynamical RAM for          nlocal pot:       2.37 MB

     Dynamical RAM for                qrad:       2.69 MB

     Dynamical RAM for          rho,v,vnew:       1.22 MB

     Dynamical RAM for               rhoin:       0.41 MB

     Dynamical RAM for            rho*nmix:       2.69 MB

     Dynamical RAM for           G-vectors:       0.36 MB

     Dynamical RAM for          h,s,v(r/c):       0.09 MB

     Dynamical RAM for          <psi|beta>:       0.02 MB

     Dynamical RAM for                 psi:       1.45 MB

     Dynamical RAM for                hpsi:       1.45 MB

     Dynamical RAM for                spsi:       1.45 MB

     Dynamical RAM for      wfcinit/wfcrot:       1.86 MB

     Dynamical RAM for           addusdens:       3.31 MB

     Estimated static dynamical RAM per process >     114.09 MB

     Estimated max dynamical RAM per process >     121.24 MB

     Estimated total dynamical RAM >       3.49 GB

     Check: negative core charge=   -0.000005
     Generating pointlists ...
     new r_m :   0.3148 (alat units)  1.9610 (a.u.) for type    1
     new r_m :   0.3148 (alat units)  1.9610 (a.u.) for type    2

     Initial potential from superposition of free atoms

     starting charge      33.9998, renormalised to      36.0000

     negative rho (up, down):  1.527E-03 6.251E-04
     Starting wfcs are   28 randomized atomic wfcs

     total cpu time spent up to now is        4.8 secs

     per-process dynamical memory:   183.7 Mb

     Self-consistent Calculation

     iteration #  1     ecut=   150.00 Ry     beta= 0.40
     Davidson diagonalization with overlap

---- Real-time Memory Report at c_bands before calling an iterative solver
           168 MiB given to the printing process from OS
           179 MiB allocation reported by mallinfo(arena+hblkhd)
         12280 MiB available memory on the node where the printing process lives
------------------
     ethr =  1.00E-02,  avg # of iterations =  3.6

     negative rho (up, down):  1.029E-03 8.940E-04

     total cpu time spent up to now is       17.4 secs

     total energy              =    -286.82687547 Ry
     estimated scf accuracy    <       0.60613271 Ry

     total magnetization       =     3.40 Bohr mag/cell
     absolute magnetization    =     3.61 Bohr mag/cell

     iteration #  2     ecut=   150.00 Ry     beta= 0.40
     Davidson diagonalization with overlap

---- Real-time Memory Report at c_bands before calling an iterative solver
           174 MiB given to the printing process from OS
           184 MiB allocation reported by mallinfo(arena+hblkhd)
         12246 MiB available memory on the node where the printing process lives
------------------
     ethr =  1.68E-03,  avg # of iterations =  2.0

     negative rho (up, down):  4.992E-04 1.537E-03

     total cpu time spent up to now is       25.9 secs

     total energy              =    -287.01290875 Ry
     estimated scf accuracy    <       0.18802242 Ry

     total magnetization       =     3.20 Bohr mag/cell
     absolute magnetization    =     3.46 Bohr mag/cell

     iteration #  3     ecut=   150.00 Ry     beta= 0.40
     Davidson diagonalization with overlap

---- Real-time Memory Report at c_bands before calling an iterative solver
           175 MiB given to the printing process from OS
           185 MiB allocation reported by mallinfo(arena+hblkhd)
         12243 MiB available memory on the node where the printing process lives
------------------
     ethr =  5.22E-04,  avg # of iterations =  2.1

     negative rho (up, down):  2.363E-04 1.501E-03

     total cpu time spent up to now is       35.2 secs

     total energy              =    -287.07334328 Ry
     estimated scf accuracy    <       0.04555726 Ry

     total magnetization       =     2.32 Bohr mag/cell
     absolute magnetization    =     2.68 Bohr mag/cell

     iteration #  4     ecut=   150.00 Ry     beta= 0.40
     Davidson diagonalization with overlap

---- Real-time Memory Report at c_bands before calling an iterative solver
           176 MiB given to the printing process from OS
           185 MiB allocation reported by mallinfo(arena+hblkhd)
         12241 MiB available memory on the node where the printing process lives
------------------
     ethr =  1.27E-04,  avg # of iterations =  3.5

     negative rho (up, down):  2.522E-04 1.353E-03

     total cpu time spent up to now is       48.4 secs

     total energy              =    -287.09697162 Ry
     estimated scf accuracy    <       0.02079727 Ry

     total magnetization       =     1.15 Bohr mag/cell
     absolute magnetization    =     1.53 Bohr mag/cell

     iteration #  5     ecut=   150.00 Ry     beta= 0.40
     Davidson diagonalization with overlap

---- Real-time Memory Report at c_bands before calling an iterative solver
           176 MiB given to the printing process from OS
           185 MiB allocation reported by mallinfo(arena+hblkhd)
         12239 MiB available memory on the node where the printing process lives
------------------
     ethr =  5.78E-05,  avg # of iterations =  2.5

     negative rho (up, down):  3.581E-04 1.124E-03

     total cpu time spent up to now is       58.7 secs

     total energy              =    -287.10554185 Ry
     estimated scf accuracy    <       0.00524723 Ry

     total magnetization       =     1.07 Bohr mag/cell
     absolute magnetization    =     1.42 Bohr mag/cell

     iteration #  6     ecut=   150.00 Ry     beta= 0.40
     Davidson diagonalization with overlap

---- Real-time Memory Report at c_bands before calling an iterative solver
           177 MiB given to the printing process from OS
           186 MiB allocation reported by mallinfo(arena+hblkhd)
         12235 MiB available memory on the node where the printing process lives
------------------
     c_bands:  1 eigenvalues not converged
     ethr =  1.46E-05,  avg # of iterations =  7.0

     negative rho (up, down):  5.677E-04 9.724E-04

     total cpu time spent up to now is       75.9 secs

     total energy              =    -287.11285892 Ry
     estimated scf accuracy    <       0.00236828 Ry

     total magnetization       =     0.74 Bohr mag/cell
     absolute magnetization    =     1.00 Bohr mag/cell

     iteration #  7     ecut=   150.00 Ry     beta= 0.40
     Davidson diagonalization with overlap

---- Real-time Memory Report at c_bands before calling an iterative solver
           177 MiB given to the printing process from OS
           186 MiB allocation reported by mallinfo(arena+hblkhd)
         12233 MiB available memory on the node where the printing process lives
------------------
     c_bands:  1 eigenvalues not converged
     ethr =  6.58E-06,  avg # of iterations =  5.7

     negative rho (up, down):  7.522E-04 8.265E-04

     total cpu time spent up to now is       91.5 secs

     total energy              =    -287.11559617 Ry
     estimated scf accuracy    <       0.00246320 Ry

     total magnetization       =     0.50 Bohr mag/cell
     absolute magnetization    =     0.67 Bohr mag/cell

     iteration #  8     ecut=   150.00 Ry     beta= 0.40
     Davidson diagonalization with overlap

---- Real-time Memory Report at c_bands before calling an iterative solver
           177 MiB given to the printing process from OS
           186 MiB allocation reported by mallinfo(arena+hblkhd)
         12230 MiB available memory on the node where the printing process lives
------------------
     ethr =  6.58E-06,  avg # of iterations =  5.7

     negative rho (up, down):  7.571E-04 8.200E-04

     total cpu time spent up to now is      107.0 secs

     total energy              =    -287.11881790 Ry
     estimated scf accuracy    <       0.00037071 Ry

     total magnetization       =     0.14 Bohr mag/cell
     absolute magnetization    =     0.20 Bohr mag/cell

     iteration #  9     ecut=   150.00 Ry     beta= 0.40
     Davidson diagonalization with overlap

---- Real-time Memory Report at c_bands before calling an iterative solver
           178 MiB given to the printing process from OS
           187 MiB allocation reported by mallinfo(arena+hblkhd)
         12229 MiB available memory on the node where the printing process lives
------------------
     c_bands:  1 eigenvalues not converged
     c_bands:  1 eigenvalues not converged
     c_bands:  1 eigenvalues not converged
     c_bands:  1 eigenvalues not converged
     c_bands:  1 eigenvalues not converged
     ethr =  1.03E-06,  avg # of iterations =  5.7

     negative rho (up, down):  7.796E-04 7.925E-04

     total cpu time spent up to now is      123.1 secs

     total energy              =    -287.11888568 Ry
     estimated scf accuracy    <       0.00007070 Ry

     total magnetization       =     0.12 Bohr mag/cell
     absolute magnetization    =     0.17 Bohr mag/cell

     iteration # 10     ecut=   150.00 Ry     beta= 0.40
     Davidson diagonalization with overlap

---- Real-time Memory Report at c_bands before calling an iterative solver
           178 MiB given to the printing process from OS
           187 MiB allocation reported by mallinfo(arena+hblkhd)
         12227 MiB available memory on the node where the printing process lives
------------------
     ethr =  1.96E-07,  avg # of iterations =  6.9

     negative rho (up, down):  7.832E-04 7.885E-04

     total cpu time spent up to now is      140.9 secs

     total energy              =    -287.11914102 Ry
     estimated scf accuracy    <       0.00002036 Ry

     total magnetization       =     0.02 Bohr mag/cell
     absolute magnetization    =     0.03 Bohr mag/cell

     iteration # 11     ecut=   150.00 Ry     beta= 0.40
     Davidson diagonalization with overlap

---- Real-time Memory Report at c_bands before calling an iterative solver
           178 MiB given to the printing process from OS
           187 MiB allocation reported by mallinfo(arena+hblkhd)
         12226 MiB available memory on the node where the printing process lives
------------------
     c_bands:  1 eigenvalues not converged
     ethr =  5.65E-08,  avg # of iterations =  3.5

     negative rho (up, down):  7.864E-04 7.861E-04

     total cpu time spent up to now is      153.0 secs

     total energy              =    -287.11915012 Ry
     estimated scf accuracy    <       0.00000195 Ry

     total magnetization       =     0.01 Bohr mag/cell
     absolute magnetization    =     0.01 Bohr mag/cell

     iteration # 12     ecut=   150.00 Ry     beta= 0.40
     Davidson diagonalization with overlap

---- Real-time Memory Report at c_bands before calling an iterative solver
           178 MiB given to the printing process from OS
           187 MiB allocation reported by mallinfo(arena+hblkhd)
         12226 MiB available memory on the node where the printing process lives
------------------
     ethr =  5.41E-09,  avg # of iterations =  5.1

     negative rho (up, down):  7.860E-04 7.857E-04

     total cpu time spent up to now is      167.1 secs

     total energy              =    -287.11915203 Ry
     estimated scf accuracy    <       0.00000099 Ry

     total magnetization       =     0.00 Bohr mag/cell
     absolute magnetization    =     0.00 Bohr mag/cell

     iteration # 13     ecut=   150.00 Ry     beta= 0.40
     Davidson diagonalization with overlap

---- Real-time Memory Report at c_bands before calling an iterative solver
           178 MiB given to the printing process from OS
           187 MiB allocation reported by mallinfo(arena+hblkhd)
         12226 MiB available memory on the node where the printing process lives
------------------
     c_bands:  1 eigenvalues not converged
     ethr =  2.75E-09,  avg # of iterations =  4.6

     negative rho (up, down):  7.857E-04 7.862E-04

     total cpu time spent up to now is      180.2 secs

     total energy              =    -287.11915265 Ry
     estimated scf accuracy    <       0.00000008 Ry

     total magnetization       =    -0.00 Bohr mag/cell
     absolute magnetization    =     0.00 Bohr mag/cell

     iteration # 14     ecut=   150.00 Ry     beta= 0.40
     Davidson diagonalization with overlap

---- Real-time Memory Report at c_bands before calling an iterative solver
           178 MiB given to the printing process from OS
           187 MiB allocation reported by mallinfo(arena+hblkhd)
         12225 MiB available memory on the node where the printing process lives
------------------
     ethr =  2.20E-10,  avg # of iterations =  5.1

     negative rho (up, down):  7.859E-04 7.861E-04

     total cpu time spent up to now is      194.7 secs

     total energy              =    -287.11915275 Ry
     estimated scf accuracy    <       0.00000002 Ry

     total magnetization       =     0.00 Bohr mag/cell
     absolute magnetization    =     0.00 Bohr mag/cell

     iteration # 15     ecut=   150.00 Ry     beta= 0.40
     Davidson diagonalization with overlap

---- Real-time Memory Report at c_bands before calling an iterative solver
           178 MiB given to the printing process from OS
           187 MiB allocation reported by mallinfo(arena+hblkhd)
         12225 MiB available memory on the node where the printing process lives
------------------
     ethr =  6.40E-11,  avg # of iterations =  3.9

     negative rho (up, down):  7.861E-04 7.860E-04

     total cpu time spent up to now is      206.5 secs

     total energy              =    -287.11915276 Ry
     estimated scf accuracy    <          2.0E-09 Ry

     total magnetization       =     0.00 Bohr mag/cell
     absolute magnetization    =     0.00 Bohr mag/cell

     iteration # 16     ecut=   150.00 Ry     beta= 0.40
     Davidson diagonalization with overlap

---- Real-time Memory Report at c_bands before calling an iterative solver
           178 MiB given to the printing process from OS
           187 MiB allocation reported by mallinfo(arena+hblkhd)
         12225 MiB available memory on the node where the printing process lives
------------------
     ethr =  5.62E-12,  avg # of iterations =  6.0

     negative rho (up, down):  7.860E-04 7.860E-04

     total cpu time spent up to now is      222.1 secs

     total energy              =    -287.11915276 Ry
     estimated scf accuracy    <          1.5E-09 Ry

     total magnetization       =    -0.00 Bohr mag/cell
     absolute magnetization    =     0.00 Bohr mag/cell

     iteration # 17     ecut=   150.00 Ry     beta= 0.40
     Davidson diagonalization with overlap

---- Real-time Memory Report at c_bands before calling an iterative solver
           178 MiB given to the printing process from OS
           187 MiB allocation reported by mallinfo(arena+hblkhd)
         12225 MiB available memory on the node where the printing process lives
------------------
     ethr =  4.13E-12,  avg # of iterations =  5.0

     negative rho (up, down):  7.860E-04 7.860E-04

     total cpu time spent up to now is      235.5 secs

     total energy              =    -287.11915276 Ry
     estimated scf accuracy    <          1.2E-09 Ry

     total magnetization       =     0.00 Bohr mag/cell
     absolute magnetization    =     0.00 Bohr mag/cell

     iteration # 18     ecut=   150.00 Ry     beta= 0.40
     Davidson diagonalization with overlap

---- Real-time Memory Report at c_bands before calling an iterative solver
           178 MiB given to the printing process from OS
           187 MiB allocation reported by mallinfo(arena+hblkhd)
         12225 MiB available memory on the node where the printing process lives
------------------
     ethr =  3.25E-12,  avg # of iterations =  3.2

     negative rho (up, down):  7.860E-04 7.860E-04

     Magnetic moment per site  (integrated on atomic sphere of radius R)
     atom   1 (R=0.315)  charge=  4.5241  magn=  0.0000
     atom   2 (R=0.315)  charge=  4.5241  magn=  0.0000
     atom   3 (R=0.315)  charge=  9.8665  magn=  0.0000
     atom   4 (R=0.315)  charge=  9.8665  magn= -0.0000

     total cpu time spent up to now is      246.8 secs

     End of self-consistent calculation

 ------ SPIN UP ------------


          k = 0.0000 0.0000 0.0000 ( 12877 PWs)   bands (ev):

   -44.2371 -44.2266 -20.6438 -20.4949 -20.4253 -20.4253 -20.4127 -20.4127
    -2.4577  -1.3080   5.4461   9.5606   9.5610   9.6975  11.0532  11.5969
    11.5971  12.8897  12.8898  13.1829  13.1829  14.4173

     occupation numbers 
     1.0000   1.0000   1.0000   1.0000   1.0000   1.0000   1.0000   1.0000
     1.0000   1.0000   1.0000   1.0000   1.0000   1.0000   1.0000   1.0000
     1.0000   1.0791   1.0791   0.2885   0.2883   0.0000

          k = 0.0000 0.0000 0.1002 ( 12943 PWs)   bands (ev):

   -44.2361 -44.2276 -20.6298 -20.5093 -20.4241 -20.4241 -20.4139 -20.4139
    -2.3663  -1.4433   5.7485   8.9174   9.6705   9.6709  11.1564  11.1567
    11.6801  13.2575  13.2576  13.3589  13.3590  14.2624

     occupation numbers 
     1.0000   1.0000   1.0000   1.0000   1.0000   1.0000   1.0000   1.0000
     1.0000   1.0000   1.0000   1.0000   1.0000   1.0000   1.0000   1.0000
     1.0000   0.1201   0.1200   0.0241   0.0241   0.0000

          k = 0.0000 0.0000 0.2003 ( 12930 PWs)   bands (ev):

   -44.2335 -44.2302 -20.5929 -20.5468 -20.4210 -20.4210 -20.4171 -20.4171
    -2.1129  -1.7645   6.5619   7.6924   9.9942   9.9945  10.5105  10.5108
    12.5814  13.4560  13.4561  13.4697  13.6569  13.6571

     occupation numbers 
     1.0000   1.0000   1.0000   1.0000   1.0000   1.0000   1.0000   1.0000
     1.0000   1.0000   1.0000   1.0000   1.0000   1.0000   1.0000   1.0000
     1.0030   0.0033   0.0033   0.0024   0.0000   0.0000

          k = 0.0000 0.0962 0.0000 ( 12907 PWs)   bands (ev):

   -44.2358 -44.2253 -20.6407 -20.4931 -20.4377 -20.4281 -20.4241 -20.4154
    -2.3656  -1.2719   5.5665   9.3415   9.5204   9.5474  10.7290  11.3144
    11.3391  12.9809  13.0232  13.3286  13.4960  14.3907

     occupation numbers 
     1.0000   1.0000   1.0000   1.0000   1.0000   1.0000   1.0000   1.0000
     1.0000   1.0000   1.0000   1.0000   1.0000   1.0000   1.0000   1.0000
     1.0000   0.9635   0.8483   0.0410   0.0013   0.0000

          k = 0.0000 0.0962 0.1002 ( 12925 PWs)   bands (ev):

   -44.2348 -44.2264 -20.6268 -20.5074 -20.4364 -20.4269 -20.4254 -20.4166
    -2.2778  -1.3990   5.8525   8.8397   9.4404   9.6525  10.5553  10.9945
    11.8755  13.0904  13.1561  13.5055  13.6883  14.3108

     occupation numbers 
     1.0000   1.0000   1.0000   1.0000   1.0000   1.0000   1.0000   1.0000
[...]
    11.8665  12.4802  13.8079  14.5172  14.5550  14.9643

     occupation numbers 
     1.0000   1.0000   1.0000   1.0000   1.0000   1.0000   1.0000   1.0000
     1.0000   1.0000   1.0000   1.0000   1.0000   1.0000   1.0000   1.0000
     1.0000   1.0003   0.0000   0.0000   0.0000   0.0000

          k =-0.5000-0.2887 0.0000 ( 13018 PWs)   bands (ev):

   -44.2181 -44.2083 -20.6099 -20.5947 -20.5808 -20.4688 -20.4667 -20.4521
    -0.8270  -0.4969   5.6616   7.0169   7.5262   8.2887   8.9196  10.1664
    11.2311  12.2284  13.7654  14.9161  15.0468  15.1223

     occupation numbers 
     1.0000   1.0000   1.0000   1.0000   1.0000   1.0000   1.0000   1.0000
     1.0000   1.0000   1.0000   1.0000   1.0000   1.0000   1.0000   1.0000
     1.0000   1.0000   0.0000   0.0000   0.0000   0.0000

          k =-0.5000-0.2887 0.1002 ( 12994 PWs)   bands (ev):

   -44.2172 -44.2092 -20.6063 -20.5836 -20.5834 -20.4812 -20.4653 -20.4535
    -0.7958  -0.5287   5.7429   6.7358   7.7536   8.2592   9.0085   9.9969
    11.3706  12.2125  14.0526  14.9283  14.9671  15.0341

     occupation numbers 
     1.0000   1.0000   1.0000   1.0000   1.0000   1.0000   1.0000   1.0000
     1.0000   1.0000   1.0000   1.0000   1.0000   1.0000   1.0000   1.0000
     1.0000   1.0000   0.0000   0.0000   0.0000   0.0000

          k =-0.5000-0.2887 0.2003 ( 12968 PWs)   bands (ev):

   -44.2147 -44.2117 -20.5988 -20.5902 -20.5525 -20.5133 -20.4617 -20.4572
    -0.7137  -0.6117   5.9745   6.3237   8.0153   8.1737   9.2611   9.6279
    11.7169  12.0647  14.7707  14.8120  14.9513  14.9603

     occupation numbers 
     1.0000   1.0000   1.0000   1.0000   1.0000   1.0000   1.0000   1.0000
     1.0000   1.0000   1.0000   1.0000   1.0000   1.0000   1.0000   1.0000
     1.0000   1.0000   0.0000   0.0000   0.0000   0.0000

          k =-0.5000-0.1925 0.0000 ( 12996 PWs)   bands (ev):

   -44.2181 -44.2083 -20.6040 -20.5936 -20.5745 -20.4737 -20.4688 -20.4585
    -0.8116  -0.5235   5.8212   7.0576   7.5565   8.2415   8.8413   9.5315
    11.7838  12.3413  13.7296  14.6973  14.9850  15.0884

     occupation numbers 
     1.0000   1.0000   1.0000   1.0000   1.0000   1.0000   1.0000   1.0000
     1.0000   1.0000   1.0000   1.0000   1.0000   1.0000   1.0000   1.0000
     1.0000   1.0000   0.0000   0.0000   0.0000   0.0000

          k =-0.5000-0.1925 0.1002 ( 12972 PWs)   bands (ev):

   -44.2172 -44.2092 -20.5997 -20.5834 -20.5770 -20.4812 -20.4723 -20.4600
    -0.7839  -0.5509   5.8950   6.8015   7.7695   8.2217   8.8991   9.4656
    11.8047  12.3116  13.9796  14.7053  14.8805  15.0406

     occupation numbers 
     1.0000   1.0000   1.0000   1.0000   1.0000   1.0000   1.0000   1.0000
     1.0000   1.0000   1.0000   1.0000   1.0000   1.0000   1.0000   1.0000
     1.0000   1.0000   0.0000   0.0000   0.0000   0.0000

          k =-0.5000-0.1925 0.2003 ( 12974 PWs)   bands (ev):

   -44.2147 -44.2117 -20.5921 -20.5838 -20.5525 -20.5133 -20.4685 -20.4638
    -0.7117  -0.6227   6.1055   6.4240   8.0193   8.1588   9.0595   9.2806
    11.9503  12.1777  14.4711  14.6903  14.7964  15.0443

     occupation numbers 
     1.0000   1.0000   1.0000   1.0000   1.0000   1.0000   1.0000   1.0000
     1.0000   1.0000   1.0000   1.0000   1.0000   1.0000   1.0000   1.0000
     1.0000   1.0000   0.0000   0.0000   0.0000   0.0000

          k =-0.5000-0.1925-0.2003 ( 12974 PWs)   bands (ev):

   -44.2147 -44.2117 -20.5921 -20.5838 -20.5525 -20.5133 -20.4685 -20.4638
    -0.7117  -0.6227   6.1055   6.4240   8.0193   8.1588   9.0595   9.2806
    11.9503  12.1777  14.4711  14.6903  14.7964  15.0452

     occupation numbers 
     1.0000   1.0000   1.0000   1.0000   1.0000   1.0000   1.0000   1.0000
     1.0000   1.0000   1.0000   1.0000   1.0000   1.0000   1.0000   1.0000
     1.0000   1.0000   0.0000   0.0000   0.0000   0.0000

          k =-0.5000-0.1925-0.1002 ( 12972 PWs)   bands (ev):

   -44.2172 -44.2092 -20.5997 -20.5834 -20.5770 -20.4812 -20.4723 -20.4600
    -0.7839  -0.5509   5.8950   6.8015   7.7695   8.2217   8.8991   9.4656
    11.8047  12.3116  13.9796  14.7053  14.8805  15.0405

     occupation numbers 
     1.0000   1.0000   1.0000   1.0000   1.0000   1.0000   1.0000   1.0000
     1.0000   1.0000   1.0000   1.0000   1.0000   1.0000   1.0000   1.0000
     1.0000   1.0000   0.0000   0.0000   0.0000   0.0000

          k =-0.5000-0.0962 0.0000 ( 12973 PWs)   bands (ev):

   -44.2181 -44.2083 -20.5977 -20.5833 -20.5592 -20.4907 -20.4742 -20.4687
    -0.7691  -0.5880   6.2340   7.1505   7.6313   8.1343   8.5393   8.7607
    12.5210  12.6251  13.5609  14.1331  14.9130  15.0812

     occupation numbers 
     1.0000   1.0000   1.0000   1.0000   1.0000   1.0000   1.0000   1.0000
     1.0000   1.0000   1.0000   1.0000   1.0000   1.0000   1.0000   1.0000
     1.0008   1.0071   0.0002   0.0000   0.0000   0.0000

          k =-0.5000-0.0962 0.1002 ( 12959 PWs)   bands (ev):

   -44.2172 -44.2092 -20.5867 -20.5799 -20.5615 -20.4892 -20.4813 -20.4755
    -0.7509  -0.6043   6.2868   6.9606   7.7975   8.1368   8.5628   8.7325
    12.4418  12.5568  13.6625  14.3597  14.7398  15.0821

     occupation numbers 
     1.0000   1.0000   1.0000   1.0000   1.0000   1.0000   1.0000   1.0000
     1.0000   1.0000   1.0000   1.0000   1.0000   1.0000   1.0000   1.0000
     1.0001   1.0018   0.0000   0.0000   0.0000   0.0000

          k =-0.5000-0.0962 0.2003 ( 12974 PWs)   bands (ev):

   -44.2147 -44.2117 -20.5758 -20.5682 -20.5524 -20.5133 -20.4849 -20.4798
    -0.7040  -0.6480   6.4388   6.6741   8.0101   8.1192   8.6087   8.6679
    12.3674  12.4249  13.9753  14.3717  14.7548  15.0315

     occupation numbers 
     1.0000   1.0000   1.0000   1.0000   1.0000   1.0000   1.0000   1.0000
     1.0000   1.0000   1.0000   1.0000   1.0000   1.0000   1.0000   1.0000
     1.0000   1.0001   0.0000   0.0000   0.0000   0.0000

          k =-0.5000-0.0962-0.2003 ( 12974 PWs)   bands (ev):

   -44.2147 -44.2117 -20.5758 -20.5682 -20.5524 -20.5133 -20.4849 -20.4798
    -0.7040  -0.6480   6.4388   6.6741   8.0101   8.1192   8.6087   8.6679
    12.3674  12.4249  13.9753  14.3717  14.7548  15.0315

     occupation numbers 
     1.0000   1.0000   1.0000   1.0000   1.0000   1.0000   1.0000   1.0000
     1.0000   1.0000   1.0000   1.0000   1.0000   1.0000   1.0000   1.0000
     1.0000   1.0001   0.0000   0.0000   0.0000   0.0000

          k =-0.5000-0.0962-0.1002 ( 12959 PWs)   bands (ev):

   -44.2172 -44.2092 -20.5867 -20.5799 -20.5615 -20.4892 -20.4813 -20.4755
    -0.7509  -0.6043   6.2868   6.9606   7.7975   8.1368   8.5628   8.7325
    12.4418  12.5568  13.6625  14.3597  14.7399  15.0834

     occupation numbers 
     1.0000   1.0000   1.0000   1.0000   1.0000   1.0000   1.0000   1.0000
     1.0000   1.0000   1.0000   1.0000   1.0000   1.0000   1.0000   1.0000
     1.0001   1.0018   0.0000   0.0000   0.0000   0.0000

          k =-0.5000 0.0000 0.0000 ( 12956 PWs)   bands (ev):

   -44.2181 -44.2083 -20.5970 -20.5727 -20.5488 -20.5021 -20.4846 -20.4688
    -0.7302  -0.6377   6.5493   7.2081   7.6823   8.0678   8.0792   8.6363
    12.8514  12.9695  13.3711  13.7160  14.9090  15.0813

     occupation numbers 
     1.0000   1.0000   1.0000   1.0000   1.0000   1.0000   1.0000   1.0000
     1.0000   1.0000   1.0000   1.0000   1.0000   1.0000   1.0000   1.0000
     1.0823   0.9880   0.0192   0.0000   0.0000   0.0000

          k =-0.5000 0.0000 0.1002 ( 12966 PWs)   bands (ev):

   -44.2172 -44.2092 -20.5850 -20.5705 -20.5510 -20.5004 -20.4866 -20.4808
    -0.7200  -0.6452   6.5818   7.0640   7.8111   8.0654   8.1382   8.5895
    12.6749  12.9517  13.2439  14.2041  14.7101  15.0719

     occupation numbers 
     1.0000   1.0000   1.0000   1.0000   1.0000   1.0000   1.0000   1.0000
     1.0000   1.0000   1.0000   1.0000   1.0000   1.0000   1.0000   1.0000
     1.0161   1.0203   0.1434   0.0000   0.0000   0.0000

          k =-0.5000 0.0000 0.2003 ( 12976 PWs)   bands (ev):

   -44.2147 -44.2117 -20.5647 -20.5585 -20.5517 -20.5134 -20.4960 -20.4905
    -0.6947  -0.6661   6.6802   6.8464   7.9764   8.0547   8.2796   8.4558
    12.5550  12.6241  13.6899  14.2114  14.7309  15.0016

     occupation numbers 
     1.0000   1.0000   1.0000   1.0000   1.0000   1.0000   1.0000   1.0000
     1.0000   1.0000   1.0000   1.0000   1.0000   1.0000   1.0000   1.0000
     1.0017   1.0069   0.0000   0.0000   0.0000   0.0000

          k =-0.5000 0.0000-0.2003 ( 12976 PWs)   bands (ev):

   -44.2147 -44.2117 -20.5647 -20.5585 -20.5517 -20.5134 -20.4960 -20.4905
    -0.6947  -0.6661   6.6802   6.8464   7.9764   8.0547   8.2796   8.4558
    12.5550  12.6241  13.6899  14.2114  14.7309  15.0017

     occupation numbers 
     1.0000   1.0000   1.0000   1.0000   1.0000   1.0000   1.0000   1.0000
     1.0000   1.0000   1.0000   1.0000   1.0000   1.0000   1.0000   1.0000
     1.0017   1.0069   0.0000   0.0000   0.0000   0.0000

          k =-0.5000 0.0000-0.1002 ( 12966 PWs)   bands (ev):

   -44.2172 -44.2092 -20.5850 -20.5705 -20.5510 -20.5004 -20.4866 -20.4808
    -0.7200  -0.6452   6.5818   7.0640   7.8111   8.0654   8.1382   8.5895
    12.6749  12.9517  13.2439  14.2041  14.7101  15.0719

     occupation numbers 
     1.0000   1.0000   1.0000   1.0000   1.0000   1.0000   1.0000   1.0000
     1.0000   1.0000   1.0000   1.0000   1.0000   1.0000   1.0000   1.0000
     1.0161   1.0203   0.1434   0.0000   0.0000   0.0000

          k =-0.5000 0.0962 0.0000 ( 12973 PWs)   bands (ev):

   -44.2181 -44.2083 -20.5977 -20.5833 -20.5592 -20.4907 -20.4742 -20.4687
    -0.7691  -0.5880   6.2340   7.1505   7.6313   8.1343   8.5393   8.7607
    12.5210  12.6251  13.5609  14.1331  14.9127  15.0812

     occupation numbers 
     1.0000   1.0000   1.0000   1.0000   1.0000   1.0000   1.0000   1.0000
     1.0000   1.0000   1.0000   1.0000   1.0000   1.0000   1.0000   1.0000
     1.0008   1.0071   0.0002   0.0000   0.0000   0.0000

          k =-0.5000 0.0962 0.1002 ( 12959 PWs)   bands (ev):

   -44.2172 -44.2092 -20.5867 -20.5799 -20.5615 -20.4892 -20.4813 -20.4755
    -0.7509  -0.6043   6.2868   6.9606   7.7975   8.1368   8.5628   8.7325
    12.4418  12.5568  13.6625  14.3597  14.7398  15.0824

     occupation numbers 
     1.0000   1.0000   1.0000   1.0000   1.0000   1.0000   1.0000   1.0000
     1.0000   1.0000   1.0000   1.0000   1.0000   1.0000   1.0000   1.0000
     1.0001   1.0018   0.0000   0.0000   0.0000   0.0000

          k =-0.5000 0.0962 0.2003 ( 12974 PWs)   bands (ev):

   -44.2147 -44.2117 -20.5758 -20.5682 -20.5524 -20.5133 -20.4849 -20.4798
    -0.7040  -0.6480   6.4388   6.6741   8.0101   8.1192   8.6087   8.6679
    12.3674  12.4249  13.9753  14.3717  14.7548  15.0315

     occupation numbers 
     1.0000   1.0000   1.0000   1.0000   1.0000   1.0000   1.0000   1.0000
     1.0000   1.0000   1.0000   1.0000   1.0000   1.0000   1.0000   1.0000
     1.0000   1.0001   0.0000   0.0000   0.0000   0.0000

          k =-0.5000 0.0962-0.2003 ( 12974 PWs)   bands (ev):

   -44.2147 -44.2117 -20.5758 -20.5682 -20.5524 -20.5133 -20.4849 -20.4798
    -0.7040  -0.6480   6.4388   6.6741   8.0101   8.1192   8.6087   8.6679
    12.3674  12.4249  13.9753  14.3717  14.7548  15.0315

     occupation numbers 
     1.0000   1.0000   1.0000   1.0000   1.0000   1.0000   1.0000   1.0000
     1.0000   1.0000   1.0000   1.0000   1.0000   1.0000   1.0000   1.0000
     1.0000   1.0001   0.0000   0.0000   0.0000   0.0000

          k =-0.5000 0.0962-0.1002 ( 12959 PWs)   bands (ev):

   -44.2172 -44.2092 -20.5867 -20.5799 -20.5615 -20.4892 -20.4813 -20.4755
    -0.7509  -0.6043   6.2868   6.9606   7.7975   8.1368   8.5628   8.7325
    12.4418  12.5568  13.6625  14.3597  14.7398  15.0821

     occupation numbers 
     1.0000   1.0000   1.0000   1.0000   1.0000   1.0000   1.0000   1.0000
     1.0000   1.0000   1.0000   1.0000   1.0000   1.0000   1.0000   1.0000
     1.0001   1.0018   0.0000   0.0000   0.0000   0.0000

          k =-0.5000 0.1925 0.0000 ( 12996 PWs)   bands (ev):

   -44.2181 -44.2083 -20.6040 -20.5936 -20.5745 -20.4737 -20.4688 -20.4585
    -0.8116  -0.5235   5.8212   7.0576   7.5565   8.2415   8.8413   9.5315
    11.7838  12.3413  13.7296  14.6973  14.9850  15.0883

     occupation numbers 
     1.0000   1.0000   1.0000   1.0000   1.0000   1.0000   1.0000   1.0000
     1.0000   1.0000   1.0000   1.0000   1.0000   1.0000   1.0000   1.0000
     1.0000   1.0000   0.0000   0.0000   0.0000   0.0000

          k =-0.5000 0.1925 0.1002 ( 12972 PWs)   bands (ev):

   -44.2172 -44.2092 -20.5997 -20.5834 -20.5770 -20.4812 -20.4723 -20.4600
    -0.7839  -0.5509   5.8950   6.8015   7.7695   8.2217   8.8991   9.4656
    11.8047  12.3116  13.9796  14.7053  14.8805  15.0405

     occupation numbers 
     1.0000   1.0000   1.0000   1.0000   1.0000   1.0000   1.0000   1.0000
     1.0000   1.0000   1.0000   1.0000   1.0000   1.0000   1.0000   1.0000
     1.0000   1.0000   0.0000   0.0000   0.0000   0.0000

          k =-0.5000 0.1925 0.2003 ( 12974 PWs)   bands (ev):

   -44.2147 -44.2117 -20.5921 -20.5838 -20.5525 -20.5133 -20.4685 -20.4638
    -0.7117  -0.6227   6.1055   6.4240   8.0193   8.1588   9.0595   9.2806
    11.9503  12.1777  14.4711  14.6903  14.7964  15.0444

     occupation numbers 
     1.0000   1.0000   1.0000   1.0000   1.0000   1.0000   1.0000   1.0000
     1.0000   1.0000   1.0000   1.0000   1.0000   1.0000   1.0000   1.0000
     1.0000   1.0000   0.0000   0.0000   0.0000   0.0000

          k =-0.5000 0.1925-0.2003 ( 12974 PWs)   bands (ev):

   -44.2147 -44.2117 -20.5921 -20.5838 -20.5525 -20.5133 -20.4685 -20.4638
    -0.7117  -0.6227   6.1055   6.4240   8.0193   8.1588   9.0595   9.2806
    11.9503  12.1777  14.4711  14.6903  14.7964  15.0443

     occupation numbers 
     1.0000   1.0000   1.0000   1.0000   1.0000   1.0000   1.0000   1.0000
     1.0000   1.0000   1.0000   1.0000   1.0000   1.0000   1.0000   1.0000
     1.0000   1.0000   0.0000   0.0000   0.0000   0.0000

          k =-0.5000 0.1925-0.1002 ( 12972 PWs)   bands (ev):

   -44.2172 -44.2092 -20.5997 -20.5834 -20.5770 -20.4812 -20.4723 -20.4600
    -0.7839  -0.5509   5.8950   6.8015   7.7695   8.2217   8.8991   9.4656
    11.8047  12.3116  13.9796  14.7053  14.8805  15.0405

     occupation numbers 
     1.0000   1.0000   1.0000   1.0000   1.0000   1.0000   1.0000   1.0000
     1.0000   1.0000   1.0000   1.0000   1.0000   1.0000   1.0000   1.0000
     1.0000   1.0000   0.0000   0.0000   0.0000   0.0000

          k =-0.5000-0.8660 0.0000 ( 13018 PWs)   bands (ev):

   -44.2181 -44.2083 -20.6099 -20.5947 -20.5808 -20.4688 -20.4667 -20.4521
    -0.8270  -0.4969   5.6616   7.0169   7.5262   8.2887   8.9196  10.1664
    11.2311  12.2284  13.7654  14.9162  15.0469  15.1223

     occupation numbers 
     1.0000   1.0000   1.0000   1.0000   1.0000   1.0000   1.0000   1.0000
     1.0000   1.0000   1.0000   1.0000   1.0000   1.0000   1.0000   1.0000
     1.0000   1.0000   0.0000   0.0000   0.0000   0.0000

          k =-0.5000-0.8660 0.1002 ( 12994 PWs)   bands (ev):

   -44.2172 -44.2092 -20.6063 -20.5836 -20.5834 -20.4812 -20.4653 -20.4535
    -0.7958  -0.5287   5.7429   6.7358   7.7536   8.2592   9.0085   9.9969
    11.3706  12.2125  14.0526  14.9283  14.9671  15.0341

     occupation numbers 
     1.0000   1.0000   1.0000   1.0000   1.0000   1.0000   1.0000   1.0000
     1.0000   1.0000   1.0000   1.0000   1.0000   1.0000   1.0000   1.0000
     1.0000   1.0000   0.0000   0.0000   0.0000   0.0000

          k =-0.5000-0.8660 0.2003 ( 12968 PWs)   bands (ev):

   -44.2147 -44.2117 -20.5988 -20.5902 -20.5525 -20.5133 -20.4617 -20.4572
    -0.7137  -0.6117   5.9745   6.3237   8.0153   8.1737   9.2611   9.6279
    11.7169  12.0647  14.7707  14.8120  14.9513  14.9603

     occupation numbers 
     1.0000   1.0000   1.0000   1.0000   1.0000   1.0000   1.0000   1.0000
     1.0000   1.0000   1.0000   1.0000   1.0000   1.0000   1.0000   1.0000
     1.0000   1.0000   0.0000   0.0000   0.0000   0.0000

     the Fermi energy is    13.1476 ev

!    total energy              =    -287.11915276 Ry
     estimated scf accuracy    <          2.2E-10 Ry
     smearing contrib. (-TS)   =      -0.00010612 Ry
     internal energy E=F+TS    =    -287.11904664 Ry

     The total energy is F=E-TS. E is the sum of the following terms:
     one-electron contribution =     -82.53420608 Ry
     hartree contribution      =      56.92965180 Ry
     xc contribution           =     -53.29035194 Ry
     ewald contribution        =    -208.22414043 Ry

     total magnetization       =     0.00 Bohr mag/cell
     absolute magnetization    =     0.00 Bohr mag/cell

     convergence has been achieved in  18 iterations

     Writing all to output data dir ./out/TiS.save/

     init_run     :      7.11s CPU      3.97s WALL (       1 calls)
     electrons    :    412.79s CPU    242.30s WALL (       1 calls)

     Called by init_run:
     wfcinit      :      6.81s CPU      3.69s WALL (       1 calls)
     wfcinit:atom :      0.38s CPU      0.19s WALL (     145 calls)
     wfcinit:wfcr :      4.77s CPU      2.67s WALL (     145 calls)
     potinit      :      0.07s CPU      0.04s WALL (       1 calls)
     hinit0       :      0.16s CPU      0.18s WALL (       1 calls)

     Called by electrons:
     c_bands      :    370.22s CPU    217.08s WALL (      18 calls)
     sum_band     :     40.28s CPU     22.53s WALL (      18 calls)
     v_of_rho     :      0.78s CPU      0.43s WALL (      19 calls)
     v_h          :      0.02s CPU      0.01s WALL (      19 calls)
     v_xc         :      0.76s CPU      0.42s WALL (      19 calls)
     newd         :      0.49s CPU      0.29s WALL (      19 calls)
     mix_rho      :      0.21s CPU      0.11s WALL (      18 calls)

     Called by c_bands:
     init_us_2    :     16.46s CPU      9.25s WALL (    5365 calls)
     init_us_2:cp :     16.42s CPU      9.24s WALL (    5365 calls)
     cegterg      :    311.22s CPU    161.57s WALL (    2610 calls)

     Called by sum_band:
     sum_band:wei :      0.29s CPU      0.33s WALL (      18 calls)
     sum_band:loo :     37.94s CPU     19.86s WALL (      18 calls)
     sum_band:buf :      3.31s CPU      1.69s WALL (    2610 calls)
     sum_band:ini :      9.12s CPU      4.58s WALL (    2610 calls)
     sum_band:cal :      8.55s CPU      4.35s WALL (    2610 calls)
     sum_band:bec :      0.12s CPU      0.07s WALL (    2610 calls)
     addusdens    :      0.92s CPU      0.75s WALL (      18 calls)
     addusd:skk   :      0.00s CPU      0.00s WALL (      36 calls)
     addusd:dgemm :      0.11s CPU      0.06s WALL (      72 calls)
     addusd:qvan2 :      0.35s CPU      0.17s WALL (      72 calls)

     Called by *egterg:
     cdiaghg      :     11.53s CPU      5.91s WALL (   14093 calls)
     cegterg:over :     27.69s CPU     14.24s WALL (   11483 calls)
     cegterg:upda :     20.62s CPU     10.40s WALL (   11483 calls)
     cegterg:last :     34.94s CPU     17.61s WALL (    6047 calls)
     h_psi        :    171.08s CPU     90.56s WALL (   14238 calls)
     s_psi        :     30.11s CPU     15.11s WALL (   14238 calls)
     g_psi        :      1.29s CPU      0.60s WALL (   11483 calls)

     Called by h_psi:
     h_psi:calbec :     38.76s CPU     19.76s WALL (   14238 calls)
     vloc_psi     :     92.20s CPU     50.47s WALL (   14238 calls)
     add_vuspsi   :     34.15s CPU     17.25s WALL (   14238 calls)

     General routines
     calbec       :     47.22s CPU     24.05s WALL (   16848 calls)
     fft          :      0.25s CPU      0.20s WALL (     397 calls)
     ffts         :      0.21s CPU      0.31s WALL (      36 calls)
     fftw         :     89.59s CPU     49.43s WALL (  382420 calls)

     Parallel routines

     PWSCF        :   7m 4.44s CPU   5m 6.00s WALL


   This run was terminated on:   7:42:47   6Oct2023            

=------------------------------------------------------------------------------=
   JOB DONE.
=------------------------------------------------------------------------------=
