
     Program PWSCF v.7.1 starts on 27May2023 at 16:18:51 

     This program is part of the open-source Quantum ESPRESSO suite
     for quantum simulation of materials; please cite
         "P. Giannozzi et al., J. Phys.:Condens. Matter 21 395502 (2009);
         "P. Giannozzi et al., J. Phys.:Condens. Matter 29 465901 (2017);
         "P. Giannozzi et al., J. Chem. Phys. 152 154105 (2020);
          URL http://www.quantum-espresso.org", 
     in publications or presentations arising from this work. More details at
     http://www.quantum-espresso.org/quote

     Parallel version (MPI & OpenMP), running on      60 processor cores
     Number of MPI processes:                30
     Threads/MPI process:                     2

     MPI processes distributed on     5 nodes
     6311 MiB available memory on the printing compute node when the environment starts

     Reading input from Mg3Bi2.nscf-bands.in

     Current dimensions of program PWSCF are:
     Max number of different atomic species (ntypx) = 10
     Max number of k-points (npk) =  40000
     Max angular momentum in pseudopotentials (lmaxx) =  4

     Atomic positions and unit cell read from directory:
     ../out/m2.save/
     Atomic positions from file used, from input discarded

     file Bi.pbe-dn-rrkjus_psl.1.0.0.UPF: wavefunction(s)  5D renormalized
     file Mg.pbe-spnl-rrkjus_psl.1.0.0.UPF: wavefunction(s)  2P renormalized
     Message from routine setup:
     using ibrav=0 with symmetry is DISCOURAGED, use correct ibrav instead

     K-points division:     npool     =      30
     Subspace diagonalization in iterative solution of the eigenvalue problem:
     a serial algorithm will be used


     G-vector sticks info
     --------------------
     sticks:   dense  smooth     PW     G-vecs:    dense   smooth      PW
     Sum        1945     967    283               110773    39149    6099

     Using Slab Decomposition



     bravais-lattice index     =            0
     lattice parameter (alat)  =       8.8863  a.u.
     unit-cell volume          =     960.2083 (a.u.)^3
     number of atoms/cell      =            5
     number of atomic types    =            2
     number of electrons       =        60.00
     number of Kohn-Sham states=           40
     kinetic-energy cutoff     =      45.0000  Ry
     charge density cutoff     =     360.0000  Ry
     Exchange-correlation= PBE
                           (   1   4   3   4   0   0   0)

     celldm(1)=   8.886344  celldm(2)=   0.000000  celldm(3)=   0.000000
     celldm(4)=   0.000000  celldm(5)=   0.000000  celldm(6)=   0.000000

     crystal axes: (cart. coord. in units of alat)
               a(1) = (  -0.500000  -0.866025   0.000000 )  
               a(2) = (  -0.500000   0.866025   0.000000 )  
               a(3) = (   0.000000   0.000000  -1.580030 )  

     reciprocal axes: (cart. coord. in units 2 pi/alat)
               b(1) = ( -1.000000 -0.577350 -0.000000 )  
               b(2) = ( -1.000000  0.577350  0.000000 )  
               b(3) = ( -0.000000  0.000000 -0.632899 )  


     PseudoPot. # 1 for Bi read from file:
     ../pseudo/Bi.pbe-dn-rrkjus_psl.1.0.0.UPF
     MD5 check sum: f9abe7488ae443f53c935a63d0032572
     Pseudo is Ultrasoft + core correction, Zval = 15.0
     Generated using &quot;atomic&quot; code by A. Dal Corso  v.6.2.2
     Using radial grid of 1283 points,  6 beta functions with: 
                l(1) =   0
                l(2) =   0
                l(3) =   1
                l(4) =   1
                l(5) =   2
                l(6) =   2
     Q(r) pseudized with 0 coefficients 


     PseudoPot. # 2 for Mg read from file:
     ../pseudo/Mg.pbe-spnl-rrkjus_psl.1.0.0.UPF
     MD5 check sum: 9996ca2d31208a261ae42168ce6c5fae
     Pseudo is Ultrasoft + core correction, Zval = 10.0
     Generated using &quot;atomic&quot; code by A. Dal Corso  v.6.3
     Using radial grid of 1129 points,  4 beta functions with: 
                l(1) =   0
                l(2) =   0
                l(3) =   1
                l(4) =   1
     Q(r) pseudized with 0 coefficients 


     atomic species   valence    mass     pseudopotential
        Bi            15.00   208.98040     Bi( 1.00)
        Mg            10.00    24.30500     Mg( 1.00)

     12 Sym. Ops., with inversion, found


                                    s                        frac. trans.

      isym =  1     identity                                     

 cryst.   s( 1) = (     1          0          0      )
                  (     0          1          0      )
                  (     0          0          1      )

 cart.    s( 1) = (  1.0000000  0.0000000  0.0000000 )
                  (  0.0000000  1.0000000  0.0000000 )
                  (  0.0000000  0.0000000  1.0000000 )


      isym =  2     180 deg rotation - cart. axis [1,0,0]        

 cryst.   s( 2) = (     0          1          0      )
                  (     1          0          0      )
                  (     0          0         -1      )

 cart.    s( 2) = (  1.0000000 -0.0000000  0.0000000 )
                  (  0.0000000 -1.0000000  0.0000000 )
                  (  0.0000000  0.0000000 -1.0000000 )


      isym =  3     120 deg rotation - cryst. axis [0,0,1]       

 cryst.   s( 3) = (    -1         -1          0      )
                  (     1          0          0      )
                  (     0          0          1      )

 cart.    s( 3) = ( -0.5000000 -0.8660254  0.0000000 )
                  (  0.8660254 -0.5000000  0.0000000 )
                  (  0.0000000  0.0000000  1.0000000 )


      isym =  4     120 deg rotation - cryst. axis [0,0,-1]      

 cryst.   s( 4) = (     0          1          0      )
                  (    -1         -1          0      )
                  (     0          0          1      )

 cart.    s( 4) = ( -0.5000000  0.8660254  0.0000000 )
                  ( -0.8660254 -0.5000000  0.0000000 )
                  (  0.0000000  0.0000000  1.0000000 )


      isym =  5     180 deg rotation - cryst. axis [0,1,0]       

 cryst.   s( 5) = (    -1         -1          0      )
                  (     0          1          0      )
                  (     0          0         -1      )

 cart.    s( 5) = ( -0.5000000 -0.8660254  0.0000000 )
                  ( -0.8660254  0.5000000  0.0000000 )
                  (  0.0000000  0.0000000 -1.0000000 )


      isym =  6     180 deg rotation - cryst. axis [1,1,0]       

 cryst.   s( 6) = (     1          0          0      )
                  (    -1         -1          0      )
                  (     0          0         -1      )

 cart.    s( 6) = ( -0.5000000  0.8660254  0.0000000 )
                  (  0.8660254  0.5000000  0.0000000 )
                  (  0.0000000  0.0000000 -1.0000000 )


      isym =  7     inversion                                    

 cryst.   s( 7) = (    -1          0          0      )
                  (     0         -1          0      )
                  (     0          0         -1      )

 cart.    s( 7) = ( -1.0000000 -0.0000000  0.0000000 )
                  ( -0.0000000 -1.0000000  0.0000000 )
                  (  0.0000000  0.0000000 -1.0000000 )


      isym =  8     inv. 180 deg rotation - cart. axis [1,0,0]   

 cryst.   s( 8) = (     0         -1          0      )
                  (    -1          0          0      )
                  (     0          0          1      )

 cart.    s( 8) = ( -1.0000000  0.0000000  0.0000000 )
                  ( -0.0000000  1.0000000  0.0000000 )
                  (  0.0000000  0.0000000  1.0000000 )


      isym =  9     inv. 120 deg rotation - cryst. axis [0,0,1]  

 cryst.   s( 9) = (     1          1          0      )
                  (    -1          0          0      )
                  (     0          0         -1      )

 cart.    s( 9) = (  0.5000000  0.8660254  0.0000000 )
                  ( -0.8660254  0.5000000  0.0000000 )
                  (  0.0000000  0.0000000 -1.0000000 )


      isym = 10     inv. 120 deg rotation - cryst. axis [0,0,-1] 

 cryst.   s(10) = (     0         -1          0      )
                  (     1          1          0      )
                  (     0          0         -1      )

 cart.    s(10) = (  0.5000000 -0.8660254  0.0000000 )
                  (  0.8660254  0.5000000  0.0000000 )
                  (  0.0000000  0.0000000 -1.0000000 )


      isym = 11     inv. 180 deg rotation - cryst. axis [0,1,0]  

 cryst.   s(11) = (     1          1          0      )
                  (     0         -1          0      )
                  (     0          0          1      )

 cart.    s(11) = (  0.5000000  0.8660254  0.0000000 )
                  (  0.8660254 -0.5000000  0.0000000 )
                  (  0.0000000  0.0000000  1.0000000 )


      isym = 12     inv. 180 deg rotation - cryst. axis [1,1,0]  

 cryst.   s(12) = (    -1          0          0      )
                  (     1          1          0      )
                  (     0          0          1      )

 cart.    s(12) = (  0.5000000 -0.8660254  0.0000000 )
                  ( -0.8660254 -0.5000000  0.0000000 )
                  (  0.0000000  0.0000000  1.0000000 )


   Cartesian axes

     site n.     atom                  positions (alat units)
         1           Mg  tau(   1) = (   0.0000000   0.0000000   0.0000000  )
         2           Mg  tau(   2) = (  -0.5000000  -0.2886751  -0.5867145  )
         3           Mg  tau(   3) = (  -0.5000000   0.2886751  -0.9933158  )
         4           Bi  tau(   4) = (  -0.5000000  -0.2886751  -1.2306453  )
         5           Bi  tau(   5) = (  -0.5000000   0.2886751  -0.3493850  )

   Crystallographic axes

     site n.     atom                  positions (cryst. coord.)
         1           Mg  tau(   1) = ( -0.0000000  0.0000000  0.0000000  )
         2           Mg  tau(   2) = (  0.6666667  0.3333333  0.3713312  )
         3           Mg  tau(   3) = (  0.3333333  0.6666667  0.6286688  )
         4           Bi  tau(   4) = (  0.6666667  0.3333333  0.7788745  )
         5           Bi  tau(   5) = (  0.3333333  0.6666667  0.2211255  )

     number of k points=   301  Marzari-Vanderbilt smearing, width (Ry)=  0.0147
                       cart. coord. in units 2pi/alat
        k(    1) = (  -0.0000000   0.0000000   0.0000000), wk =   0.0066445
        k(    2) = (  -0.0100000  -0.0057735   0.0000000), wk =   0.0066445
        k(    3) = (  -0.0200000  -0.0115470   0.0000000), wk =   0.0066445
        k(    4) = (  -0.0300000  -0.0173205   0.0000000), wk =   0.0066445
        k(    5) = (  -0.0400000  -0.0230940   0.0000000), wk =   0.0066445
        k(    6) = (  -0.0500000  -0.0288675   0.0000000), wk =   0.0066445
        k(    7) = (  -0.0600000  -0.0346410   0.0000000), wk =   0.0066445
        k(    8) = (  -0.0700000  -0.0404145   0.0000000), wk =   0.0066445
        k(    9) = (  -0.0800000  -0.0461880   0.0000000), wk =   0.0066445
        k(   10) = (  -0.0900000  -0.0519615   0.0000000), wk =   0.0066445
        k(   11) = (  -0.1000000  -0.0577350   0.0000000), wk =   0.0066445
        k(   12) = (  -0.1100000  -0.0635085   0.0000000), wk =   0.0066445
        k(   13) = (  -0.1200000  -0.0692820   0.0000000), wk =   0.0066445
        k(   14) = (  -0.1300000  -0.0750555   0.0000000), wk =   0.0066445
        k(   15) = (  -0.1400000  -0.0808290   0.0000000), wk =   0.0066445
        k(   16) = (  -0.1500000  -0.0866025   0.0000000), wk =   0.0066445
        k(   17) = (  -0.1600000  -0.0923760   0.0000000), wk =   0.0066445
        k(   18) = (  -0.1700000  -0.0981495   0.0000000), wk =   0.0066445
        k(   19) = (  -0.1800000  -0.1039230   0.0000000), wk =   0.0066445
        k(   20) = (  -0.1900000  -0.1096966   0.0000000), wk =   0.0066445
        k(   21) = (  -0.2000000  -0.1154701   0.0000000), wk =   0.0066445
        k(   22) = (  -0.2100000  -0.1212436   0.0000000), wk =   0.0066445
        k(   23) = (  -0.2200000  -0.1270171   0.0000000), wk =   0.0066445
        k(   24) = (  -0.2300000  -0.1327906   0.0000000), wk =   0.0066445
        k(   25) = (  -0.2400000  -0.1385641   0.0000000), wk =   0.0066445
        k(   26) = (  -0.2500000  -0.1443376   0.0000000), wk =   0.0066445
        k(   27) = (  -0.2600000  -0.1501111   0.0000000), wk =   0.0066445
        k(   28) = (  -0.2700000  -0.1558846   0.0000000), wk =   0.0066445
        k(   29) = (  -0.2800000  -0.1616581   0.0000000), wk =   0.0066445
        k(   30) = (  -0.2900000  -0.1674316   0.0000000), wk =   0.0066445
        k(   31) = (  -0.3000000  -0.1732051   0.0000000), wk =   0.0066445
        k(   32) = (  -0.3100000  -0.1789786   0.0000000), wk =   0.0066445
        k(   33) = (  -0.3200000  -0.1847521   0.0000000), wk =   0.0066445
        k(   34) = (  -0.3300000  -0.1905256   0.0000000), wk =   0.0066445
        k(   35) = (  -0.3400000  -0.1962991   0.0000000), wk =   0.0066445
        k(   36) = (  -0.3500000  -0.2020726   0.0000000), wk =   0.0066445
        k(   37) = (  -0.3600000  -0.2078461   0.0000000), wk =   0.0066445
        k(   38) = (  -0.3700000  -0.2136196   0.0000000), wk =   0.0066445
        k(   39) = (  -0.3800000  -0.2193931   0.0000000), wk =   0.0066445
        k(   40) = (  -0.3900000  -0.2251666   0.0000000), wk =   0.0066445
        k(   41) = (  -0.4000000  -0.2309401   0.0000000), wk =   0.0066445
        k(   42) = (  -0.4100000  -0.2367136   0.0000000), wk =   0.0066445
        k(   43) = (  -0.4200000  -0.2424871   0.0000000), wk =   0.0066445
        k(   44) = (  -0.4300000  -0.2482606   0.0000000), wk =   0.0066445
        k(   45) = (  -0.4400000  -0.2540341   0.0000000), wk =   0.0066445
        k(   46) = (  -0.4500000  -0.2598076   0.0000000), wk =   0.0066445
        k(   47) = (  -0.4600000  -0.2655811   0.0000000), wk =   0.0066445
        k(   48) = (  -0.4700000  -0.2713546   0.0000000), wk =   0.0066445
        k(   49) = (  -0.4800000  -0.2771281   0.0000000), wk =   0.0066445
        k(   50) = (  -0.4900000  -0.2829016   0.0000000), wk =   0.0066445
        k(   51) = (  -0.5000000  -0.2886751   0.0000000), wk =   0.0066445
        k(   52) = (  -0.5033320  -0.2829016   0.0000000), wk =   0.0066445
        k(   53) = (  -0.5066640  -0.2771281   0.0000000), wk =   0.0066445
        k(   54) = (  -0.5099960  -0.2713546   0.0000000), wk =   0.0066445
        k(   55) = (  -0.5133280  -0.2655811   0.0000000), wk =   0.0066445
        k(   56) = (  -0.5166600  -0.2598076   0.0000000), wk =   0.0066445
        k(   57) = (  -0.5199920  -0.2540341   0.0000000), wk =   0.0066445
        k(   58) = (  -0.5233240  -0.2482606   0.0000000), wk =   0.0066445
        k(   59) = (  -0.5266560  -0.2424871   0.0000000), wk =   0.0066445
        k(   60) = (  -0.5299880  -0.2367136   0.0000000), wk =   0.0066445
        k(   61) = (  -0.5333200  -0.2309401   0.0000000), wk =   0.0066445
        k(   62) = (  -0.5366520  -0.2251666   0.0000000), wk =   0.0066445
        k(   63) = (  -0.5399840  -0.2193931   0.0000000), wk =   0.0066445
        k(   64) = (  -0.5433160  -0.2136196   0.0000000), wk =   0.0066445
        k(   65) = (  -0.5466480  -0.2078461   0.0000000), wk =   0.0066445
        k(   66) = (  -0.5499800  -0.2020726   0.0000000), wk =   0.0066445
        k(   67) = (  -0.5533120  -0.1962991   0.0000000), wk =   0.0066445
        k(   68) = (  -0.5566440  -0.1905256   0.0000000), wk =   0.0066445
        k(   69) = (  -0.5599760  -0.1847521   0.0000000), wk =   0.0066445
        k(   70) = (  -0.5633080  -0.1789786   0.0000000), wk =   0.0066445
        k(   71) = (  -0.5666400  -0.1732051   0.0000000), wk =   0.0066445
        k(   72) = (  -0.5699720  -0.1674316   0.0000000), wk =   0.0066445
        k(   73) = (  -0.5733040  -0.1616581   0.0000000), wk =   0.0066445
        k(   74) = (  -0.5766360  -0.1558846   0.0000000), wk =   0.0066445
        k(   75) = (  -0.5799680  -0.1501111   0.0000000), wk =   0.0066445
        k(   76) = (  -0.5833000  -0.1443376   0.0000000), wk =   0.0066445
        k(   77) = (  -0.5866320  -0.1385641   0.0000000), wk =   0.0066445
        k(   78) = (  -0.5899640  -0.1327906   0.0000000), wk =   0.0066445
        k(   79) = (  -0.5932960  -0.1270171   0.0000000), wk =   0.0066445
        k(   80) = (  -0.5966280  -0.1212436   0.0000000), wk =   0.0066445
        k(   81) = (  -0.5999600  -0.1154701   0.0000000), wk =   0.0066445
        k(   82) = (  -0.6032920  -0.1096966   0.0000000), wk =   0.0066445
        k(   83) = (  -0.6066240  -0.1039230   0.0000000), wk =   0.0066445
        k(   84) = (  -0.6099560  -0.0981495   0.0000000), wk =   0.0066445
        k(   85) = (  -0.6132880  -0.0923760   0.0000000), wk =   0.0066445
        k(   86) = (  -0.6166200  -0.0866025   0.0000000), wk =   0.0066445
        k(   87) = (  -0.6199520  -0.0808290   0.0000000), wk =   0.0066445
        k(   88) = (  -0.6232840  -0.0750555   0.0000000), wk =   0.0066445
        k(   89) = (  -0.6266160  -0.0692820   0.0000000), wk =   0.0066445
        k(   90) = (  -0.6299480  -0.0635085   0.0000000), wk =   0.0066445
        k(   91) = (  -0.6332800  -0.0577350   0.0000000), wk =   0.0066445
        k(   92) = (  -0.6366120  -0.0519615   0.0000000), wk =   0.0066445
        k(   93) = (  -0.6399440  -0.0461880   0.0000000), wk =   0.0066445
        k(   94) = (  -0.6432760  -0.0404145   0.0000000), wk =   0.0066445
        k(   95) = (  -0.6466080  -0.0346410   0.0000000), wk =   0.0066445
        k(   96) = (  -0.6499400  -0.0288675   0.0000000), wk =   0.0066445
        k(   97) = (  -0.6532720  -0.0230940   0.0000000), wk =   0.0066445
        k(   98) = (  -0.6566040  -0.0173205   0.0000000), wk =   0.0066445
        k(   99) = (  -0.6599360  -0.0115470   0.0000000), wk =   0.0066445
        k(  100) = (  -0.6632680  -0.0057735   0.0000000), wk =   0.0066445
        k(  101) = (  -0.6666000   0.0000000   0.0000000), wk =   0.0066445
        k(  102) = (  -0.6532680  -0.0000000   0.0000000), wk =   0.0066445
        k(  103) = (  -0.6399360   0.0000000   0.0000000), wk =   0.0066445
        k(  104) = (  -0.6266040  -0.0000000   0.0000000), wk =   0.0066445
        k(  105) = (  -0.6132720   0.0000000   0.0000000), wk =   0.0066445
        k(  106) = (  -0.5999400  -0.0000000   0.0000000), wk =   0.0066445
        k(  107) = (  -0.5866080   0.0000000   0.0000000), wk =   0.0066445
        k(  108) = (  -0.5732760  -0.0000000   0.0000000), wk =   0.0066445
        k(  109) = (  -0.5599440  -0.0000000   0.0000000), wk =   0.0066445
        k(  110) = (  -0.5466120   0.0000000   0.0000000), wk =   0.0066445
        k(  111) = (  -0.5332800  -0.0000000   0.0000000), wk =   0.0066445
        k(  112) = (  -0.5199480   0.0000000   0.0000000), wk =   0.0066445
        k(  113) = (  -0.5066160  -0.0000000   0.0000000), wk =   0.0066445
        k(  114) = (  -0.4932840   0.0000000   0.0000000), wk =   0.0066445
        k(  115) = (  -0.4799520   0.0000000   0.0000000), wk =   0.0066445
        k(  116) = (  -0.4666200   0.0000000   0.0000000), wk =   0.0066445
        k(  117) = (  -0.4532880  -0.0000000   0.0000000), wk =   0.0066445
        k(  118) = (  -0.4399560   0.0000000   0.0000000), wk =   0.0066445
        k(  119) = (  -0.4266240   0.0000000   0.0000000), wk =   0.0066445
        k(  120) = (  -0.4132920   0.0000000   0.0000000), wk =   0.0066445
        k(  121) = (  -0.3999600   0.0000000   0.0000000), wk =   0.0066445
        k(  122) = (  -0.3866280  -0.0000000   0.0000000), wk =   0.0066445
        k(  123) = (  -0.3732960  -0.0000000   0.0000000), wk =   0.0066445
        k(  124) = (  -0.3599640  -0.0000000   0.0000000), wk =   0.0066445
        k(  125) = (  -0.3466320  -0.0000000   0.0000000), wk =   0.0066445
        k(  126) = (  -0.3333000   0.0000000   0.0000000), wk =   0.0066445
        k(  127) = (  -0.3199680   0.0000000   0.0000000), wk =   0.0066445
        k(  128) = (  -0.3066360   0.0000000   0.0000000), wk =   0.0066445
        k(  129) = (  -0.2933040  -0.0000000   0.0000000), wk =   0.0066445
        k(  130) = (  -0.2799720  -0.0000000   0.0000000), wk =   0.0066445
        k(  131) = (  -0.2666400  -0.0000000   0.0000000), wk =   0.0066445
        k(  132) = (  -0.2533080  -0.0000000   0.0000000), wk =   0.0066445
        k(  133) = (  -0.2399760   0.0000000   0.0000000), wk =   0.0066445
        k(  134) = (  -0.2266440   0.0000000   0.0000000), wk =   0.0066445
        k(  135) = (  -0.2133120   0.0000000   0.0000000), wk =   0.0066445
        k(  136) = (  -0.1999800  -0.0000000   0.0000000), wk =   0.0066445
        k(  137) = (  -0.1866480  -0.0000000   0.0000000), wk =   0.0066445
        k(  138) = (  -0.1733160  -0.0000000   0.0000000), wk =   0.0066445
        k(  139) = (  -0.1599840   0.0000000   0.0000000), wk =   0.0066445
        k(  140) = (  -0.1466520  -0.0000000   0.0000000), wk =   0.0066445
        k(  141) = (  -0.1333200  -0.0000000   0.0000000), wk =   0.0066445
        k(  142) = (  -0.1199880   0.0000000   0.0000000), wk =   0.0066445
        k(  143) = (  -0.1066560  -0.0000000   0.0000000), wk =   0.0066445
        k(  144) = (  -0.0933240  -0.0000000   0.0000000), wk =   0.0066445
        k(  145) = (  -0.0799920   0.0000000   0.0000000), wk =   0.0066445
        k(  146) = (  -0.0666600  -0.0000000   0.0000000), wk =   0.0066445
        k(  147) = (  -0.0533280  -0.0000000   0.0000000), wk =   0.0066445
        k(  148) = (  -0.0399960  -0.0000000   0.0000000), wk =   0.0066445
        k(  149) = (  -0.0266640   0.0000000   0.0000000), wk =   0.0066445
        k(  150) = (  -0.0133320   0.0000000   0.0000000), wk =   0.0066445
        k(  151) = (  -0.0000000   0.0000000   0.0000000), wk =   0.0066445
        k(  152) = (  -0.0000000   0.0000000  -0.0063290), wk =   0.0066445
        k(  153) = (  -0.0000000   0.0000000  -0.0126580), wk =   0.0066445
        k(  154) = (  -0.0000000   0.0000000  -0.0189870), wk =   0.0066445
        k(  155) = (  -0.0000000   0.0000000  -0.0253160), wk =   0.0066445
        k(  156) = (  -0.0000000   0.0000000  -0.0316450), wk =   0.0066445
        k(  157) = (  -0.0000000   0.0000000  -0.0379740), wk =   0.0066445
        k(  158) = (  -0.0000000   0.0000000  -0.0443029), wk =   0.0066445
        k(  159) = (  -0.0000000   0.0000000  -0.0506319), wk =   0.0066445
        k(  160) = (  -0.0000000   0.0000000  -0.0569609), wk =   0.0066445
        k(  161) = (  -0.0000000   0.0000000  -0.0632899), wk =   0.0066445
        k(  162) = (  -0.0000000   0.0000000  -0.0696189), wk =   0.0066445
        k(  163) = (  -0.0000000   0.0000000  -0.0759479), wk =   0.0066445
        k(  164) = (  -0.0000000   0.0000000  -0.0822769), wk =   0.0066445
        k(  165) = (  -0.0000000   0.0000000  -0.0886059), wk =   0.0066445
        k(  166) = (  -0.0000000   0.0000000  -0.0949349), wk =   0.0066445
        k(  167) = (  -0.0000000   0.0000000  -0.1012639), wk =   0.0066445
        k(  168) = (  -0.0000000   0.0000000  -0.1075929), wk =   0.0066445
        k(  169) = (  -0.0000000   0.0000000  -0.1139219), wk =   0.0066445
        k(  170) = (  -0.0000000   0.0000000  -0.1202509), wk =   0.0066445
        k(  171) = (  -0.0000000   0.0000000  -0.1265799), wk =   0.0066445
        k(  172) = (  -0.0000000   0.0000000  -0.1329088), wk =   0.0066445
        k(  173) = (  -0.0000000   0.0000000  -0.1392378), wk =   0.0066445
        k(  174) = (  -0.0000000   0.0000000  -0.1455668), wk =   0.0066445
        k(  175) = (  -0.0000000   0.0000000  -0.1518958), wk =   0.0066445
        k(  176) = (  -0.0000000   0.0000000  -0.1582248), wk =   0.0066445
        k(  177) = (  -0.0000000   0.0000000  -0.1645538), wk =   0.0066445
        k(  178) = (  -0.0000000   0.0000000  -0.1708828), wk =   0.0066445
        k(  179) = (  -0.0000000   0.0000000  -0.1772118), wk =   0.0066445
        k(  180) = (  -0.0000000   0.0000000  -0.1835408), wk =   0.0066445
        k(  181) = (  -0.0000000   0.0000000  -0.1898698), wk =   0.0066445
        k(  182) = (  -0.0000000   0.0000000  -0.1961988), wk =   0.0066445
        k(  183) = (  -0.0000000   0.0000000  -0.2025278), wk =   0.0066445
        k(  184) = (  -0.0000000   0.0000000  -0.2088568), wk =   0.0066445
        k(  185) = (  -0.0000000   0.0000000  -0.2151857), wk =   0.0066445
        k(  186) = (  -0.0000000   0.0000000  -0.2215147), wk =   0.0066445
        k(  187) = (  -0.0000000   0.0000000  -0.2278437), wk =   0.0066445
        k(  188) = (  -0.0000000   0.0000000  -0.2341727), wk =   0.0066445
        k(  189) = (  -0.0000000   0.0000000  -0.2405017), wk =   0.0066445
        k(  190) = (  -0.0000000   0.0000000  -0.2468307), wk =   0.0066445
        k(  191) = (  -0.0000000   0.0000000  -0.2531597), wk =   0.0066445
        k(  192) = (  -0.0000000   0.0000000  -0.2594887), wk =   0.0066445
        k(  193) = (  -0.0000000   0.0000000  -0.2658177), wk =   0.0066445
        k(  194) = (  -0.0000000   0.0000000  -0.2721467), wk =   0.0066445
        k(  195) = (  -0.0000000   0.0000000  -0.2784757), wk =   0.0066445
        k(  196) = (  -0.0000000   0.0000000  -0.2848047), wk =   0.0066445
        k(  197) = (  -0.0000000   0.0000000  -0.2911337), wk =   0.0066445
        k(  198) = (  -0.0000000   0.0000000  -0.2974627), wk =   0.0066445
        k(  199) = (  -0.0000000   0.0000000  -0.3037916), wk =   0.0066445
        k(  200) = (  -0.0000000   0.0000000  -0.3101206), wk =   0.0066445
        k(  201) = (  -0.0000000   0.0000000  -0.3164496), wk =   0.0066445
        k(  202) = (  -0.0100000  -0.0057735  -0.3164496), wk =   0.0066445
        k(  203) = (  -0.0200000  -0.0115470  -0.3164496), wk =   0.0066445
        k(  204) = (  -0.0300000  -0.0173205  -0.3164496), wk =   0.0066445
        k(  205) = (  -0.0400000  -0.0230940  -0.3164496), wk =   0.0066445
        k(  206) = (  -0.0500000  -0.0288675  -0.3164496), wk =   0.0066445
        k(  207) = (  -0.0600000  -0.0346410  -0.3164496), wk =   0.0066445
        k(  208) = (  -0.0700000  -0.0404145  -0.3164496), wk =   0.0066445
        k(  209) = (  -0.0800000  -0.0461880  -0.3164496), wk =   0.0066445
        k(  210) = (  -0.0900000  -0.0519615  -0.3164496), wk =   0.0066445
        k(  211) = (  -0.1000000  -0.0577350  -0.3164496), wk =   0.0066445
        k(  212) = (  -0.1100000  -0.0635085  -0.3164496), wk =   0.0066445
        k(  213) = (  -0.1200000  -0.0692820  -0.3164496), wk =   0.0066445
        k(  214) = (  -0.1300000  -0.0750555  -0.3164496), wk =   0.0066445
        k(  215) = (  -0.1400000  -0.0808290  -0.3164496), wk =   0.0066445
        k(  216) = (  -0.1500000  -0.0866025  -0.3164496), wk =   0.0066445
        k(  217) = (  -0.1600000  -0.0923760  -0.3164496), wk =   0.0066445
        k(  218) = (  -0.1700000  -0.0981495  -0.3164496), wk =   0.0066445
        k(  219) = (  -0.1800000  -0.1039230  -0.3164496), wk =   0.0066445
        k(  220) = (  -0.1900000  -0.1096966  -0.3164496), wk =   0.0066445
        k(  221) = (  -0.2000000  -0.1154701  -0.3164496), wk =   0.0066445
        k(  222) = (  -0.2100000  -0.1212436  -0.3164496), wk =   0.0066445
        k(  223) = (  -0.2200000  -0.1270171  -0.3164496), wk =   0.0066445
        k(  224) = (  -0.2300000  -0.1327906  -0.3164496), wk =   0.0066445
        k(  225) = (  -0.2400000  -0.1385641  -0.3164496), wk =   0.0066445
        k(  226) = (  -0.2500000  -0.1443376  -0.3164496), wk =   0.0066445
        k(  227) = (  -0.2600000  -0.1501111  -0.3164496), wk =   0.0066445
        k(  228) = (  -0.2700000  -0.1558846  -0.3164496), wk =   0.0066445
        k(  229) = (  -0.2800000  -0.1616581  -0.3164496), wk =   0.0066445
        k(  230) = (  -0.2900000  -0.1674316  -0.3164496), wk =   0.0066445
        k(  231) = (  -0.3000000  -0.1732051  -0.3164496), wk =   0.0066445
        k(  232) = (  -0.3100000  -0.1789786  -0.3164496), wk =   0.0066445
        k(  233) = (  -0.3200000  -0.1847521  -0.3164496), wk =   0.0066445
        k(  234) = (  -0.3300000  -0.1905256  -0.3164496), wk =   0.0066445
        k(  235) = (  -0.3400000  -0.1962991  -0.3164496), wk =   0.0066445
        k(  236) = (  -0.3500000  -0.2020726  -0.3164496), wk =   0.0066445
        k(  237) = (  -0.3600000  -0.2078461  -0.3164496), wk =   0.0066445
        k(  238) = (  -0.3700000  -0.2136196  -0.3164496), wk =   0.0066445
        k(  239) = (  -0.3800000  -0.2193931  -0.3164496), wk =   0.0066445
        k(  240) = (  -0.3900000  -0.2251666  -0.3164496), wk =   0.0066445
        k(  241) = (  -0.4000000  -0.2309401  -0.3164496), wk =   0.0066445
        k(  242) = (  -0.4100000  -0.2367136  -0.3164496), wk =   0.0066445
        k(  243) = (  -0.4200000  -0.2424871  -0.3164496), wk =   0.0066445
        k(  244) = (  -0.4300000  -0.2482606  -0.3164496), wk =   0.0066445
        k(  245) = (  -0.4400000  -0.2540341  -0.3164496), wk =   0.0066445
        k(  246) = (  -0.4500000  -0.2598076  -0.3164496), wk =   0.0066445
        k(  247) = (  -0.4600000  -0.2655811  -0.3164496), wk =   0.0066445
        k(  248) = (  -0.4700000  -0.2713546  -0.3164496), wk =   0.0066445
        k(  249) = (  -0.4800000  -0.2771281  -0.3164496), wk =   0.0066445
        k(  250) = (  -0.4900000  -0.2829016  -0.3164496), wk =   0.0066445
        k(  251) = (  -0.5000000  -0.2886751  -0.3164496), wk =   0.0066445
        k(  252) = (  -0.5033320  -0.2829016  -0.3164496), wk =   0.0066445
        k(  253) = (  -0.5066640  -0.2771281  -0.3164496), wk =   0.0066445
        k(  254) = (  -0.5099960  -0.2713546  -0.3164496), wk =   0.0066445
        k(  255) = (  -0.5133280  -0.2655811  -0.3164496), wk =   0.0066445
        k(  256) = (  -0.5166600  -0.2598076  -0.3164496), wk =   0.0066445
        k(  257) = (  -0.5199920  -0.2540341  -0.3164496), wk =   0.0066445
        k(  258) = (  -0.5233240  -0.2482606  -0.3164496), wk =   0.0066445
        k(  259) = (  -0.5266560  -0.2424871  -0.3164496), wk =   0.0066445
        k(  260) = (  -0.5299880  -0.2367136  -0.3164496), wk =   0.0066445
        k(  261) = (  -0.5333200  -0.2309401  -0.3164496), wk =   0.0066445
        k(  262) = (  -0.5366520  -0.2251666  -0.3164496), wk =   0.0066445
        k(  263) = (  -0.5399840  -0.2193931  -0.3164496), wk =   0.0066445
        k(  264) = (  -0.5433160  -0.2136196  -0.3164496), wk =   0.0066445
        k(  265) = (  -0.5466480  -0.2078461  -0.3164496), wk =   0.0066445
        k(  266) = (  -0.5499800  -0.2020726  -0.3164496), wk =   0.0066445
        k(  267) = (  -0.5533120  -0.1962991  -0.3164496), wk =   0.0066445
        k(  268) = (  -0.5566440  -0.1905256  -0.3164496), wk =   0.0066445
        k(  269) = (  -0.5599760  -0.1847521  -0.3164496), wk =   0.0066445
        k(  270) = (  -0.5633080  -0.1789786  -0.3164496), wk =   0.0066445
        k(  271) = (  -0.5666400  -0.1732051  -0.3164496), wk =   0.0066445
        k(  272) = (  -0.5699720  -0.1674316  -0.3164496), wk =   0.0066445
        k(  273) = (  -0.5733040  -0.1616581  -0.3164496), wk =   0.0066445
        k(  274) = (  -0.5766360  -0.1558846  -0.3164496), wk =   0.0066445
        k(  275) = (  -0.5799680  -0.1501111  -0.3164496), wk =   0.0066445
        k(  276) = (  -0.5833000  -0.1443376  -0.3164496), wk =   0.0066445
        k(  277) = (  -0.5866320  -0.1385641  -0.3164496), wk =   0.0066445
        k(  278) = (  -0.5899640  -0.1327906  -0.3164496), wk =   0.0066445
        k(  279) = (  -0.5932960  -0.1270171  -0.3164496), wk =   0.0066445
        k(  280) = (  -0.5966280  -0.1212436  -0.3164496), wk =   0.0066445
        k(  281) = (  -0.5999600  -0.1154701  -0.3164496), wk =   0.0066445
        k(  282) = (  -0.6032920  -0.1096966  -0.3164496), wk =   0.0066445
        k(  283) = (  -0.6066240  -0.1039230  -0.3164496), wk =   0.0066445
        k(  284) = (  -0.6099560  -0.0981495  -0.3164496), wk =   0.0066445
        k(  285) = (  -0.6132880  -0.0923760  -0.3164496), wk =   0.0066445
        k(  286) = (  -0.6166200  -0.0866025  -0.3164496), wk =   0.0066445
        k(  287) = (  -0.6199520  -0.0808290  -0.3164496), wk =   0.0066445
        k(  288) = (  -0.6232840  -0.0750555  -0.3164496), wk =   0.0066445
        k(  289) = (  -0.6266160  -0.0692820  -0.3164496), wk =   0.0066445
        k(  290) = (  -0.6299480  -0.0635085  -0.3164496), wk =   0.0066445
        k(  291) = (  -0.6332800  -0.0577350  -0.3164496), wk =   0.0066445
        k(  292) = (  -0.6366120  -0.0519615  -0.3164496), wk =   0.0066445
        k(  293) = (  -0.6399440  -0.0461880  -0.3164496), wk =   0.0066445
        k(  294) = (  -0.6432760  -0.0404145  -0.3164496), wk =   0.0066445
        k(  295) = (  -0.6466080  -0.0346410  -0.3164496), wk =   0.0066445
        k(  296) = (  -0.6499400  -0.0288675  -0.3164496), wk =   0.0066445
        k(  297) = (  -0.6532720  -0.0230940  -0.3164496), wk =   0.0066445
        k(  298) = (  -0.6566040  -0.0173205  -0.3164496), wk =   0.0066445
        k(  299) = (  -0.6599360  -0.0115470  -0.3164496), wk =   0.0066445
        k(  300) = (  -0.6632680  -0.0057735  -0.3164496), wk =   0.0066445
        k(  301) = (  -0.6666000   0.0000000  -0.3164496), wk =   0.0066445

                       cryst. coord.
        k(    1) = (   0.0000000   0.0000000   0.0000000), wk =   0.0066445
        k(    2) = (   0.0100000   0.0000000  -0.0000000), wk =   0.0066445
        k(    3) = (   0.0200000   0.0000000  -0.0000000), wk =   0.0066445
        k(    4) = (   0.0300000  -0.0000000  -0.0000000), wk =   0.0066445
        k(    5) = (   0.0400000   0.0000000  -0.0000000), wk =   0.0066445
        k(    6) = (   0.0500000  -0.0000000  -0.0000000), wk =   0.0066445
        k(    7) = (   0.0600000  -0.0000000  -0.0000000), wk =   0.0066445
        k(    8) = (   0.0700000  -0.0000000  -0.0000000), wk =   0.0066445
        k(    9) = (   0.0800000   0.0000000  -0.0000000), wk =   0.0066445
        k(   10) = (   0.0900000  -0.0000000  -0.0000000), wk =   0.0066445
        k(   11) = (   0.1000000  -0.0000000  -0.0000000), wk =   0.0066445
        k(   12) = (   0.1100000   0.0000000  -0.0000000), wk =   0.0066445
        k(   13) = (   0.1200000  -0.0000000  -0.0000000), wk =   0.0066445
        k(   14) = (   0.1300000   0.0000000  -0.0000000), wk =   0.0066445
        k(   15) = (   0.1400000  -0.0000000  -0.0000000), wk =   0.0066445
        k(   16) = (   0.1500000  -0.0000000  -0.0000000), wk =   0.0066445
        k(   17) = (   0.1600000   0.0000000  -0.0000000), wk =   0.0066445
        k(   18) = (   0.1700000  -0.0000000  -0.0000000), wk =   0.0066445
        k(   19) = (   0.1800000  -0.0000000  -0.0000000), wk =   0.0066445
        k(   20) = (   0.1900000   0.0000000  -0.0000000), wk =   0.0066445
        k(   21) = (   0.2000000  -0.0000000  -0.0000000), wk =   0.0066445
        k(   22) = (   0.2100000  -0.0000000  -0.0000000), wk =   0.0066445
        k(   23) = (   0.2200000   0.0000000  -0.0000000), wk =   0.0066445
        k(   24) = (   0.2300000  -0.0000000  -0.0000000), wk =   0.0066445
        k(   25) = (   0.2400000  -0.0000000  -0.0000000), wk =   0.0066445
        k(   26) = (   0.2500000  -0.0000000  -0.0000000), wk =   0.0066445
        k(   27) = (   0.2600000   0.0000000  -0.0000000), wk =   0.0066445
        k(   28) = (   0.2700000   0.0000000  -0.0000000), wk =   0.0066445
        k(   29) = (   0.2800000  -0.0000000  -0.0000000), wk =   0.0066445
        k(   30) = (   0.2900000  -0.0000000  -0.0000000), wk =   0.0066445
        k(   31) = (   0.3000000  -0.0000000  -0.0000000), wk =   0.0066445
        k(   32) = (   0.3100000  -0.0000000  -0.0000000), wk =   0.0066445
        k(   33) = (   0.3200000   0.0000000  -0.0000000), wk =   0.0066445
        k(   34) = (   0.3300000  -0.0000000  -0.0000000), wk =   0.0066445
        k(   35) = (   0.3400000  -0.0000000  -0.0000000), wk =   0.0066445
        k(   36) = (   0.3500000  -0.0000000  -0.0000000), wk =   0.0066445
        k(   37) = (   0.3600000  -0.0000000  -0.0000000), wk =   0.0066445
        k(   38) = (   0.3700000  -0.0000000  -0.0000000), wk =   0.0066445
        k(   39) = (   0.3800000   0.0000000  -0.0000000), wk =   0.0066445
        k(   40) = (   0.3900000  -0.0000000  -0.0000000), wk =   0.0066445
        k(   41) = (   0.4000000  -0.0000000  -0.0000000), wk =   0.0066445
        k(   42) = (   0.4100000  -0.0000000  -0.0000000), wk =   0.0066445
        k(   43) = (   0.4200000  -0.0000000  -0.0000000), wk =   0.0066445
        k(   44) = (   0.4300000  -0.0000000  -0.0000000), wk =   0.0066445
        k(   45) = (   0.4400000   0.0000000  -0.0000000), wk =   0.0066445
        k(   46) = (   0.4500000  -0.0000000  -0.0000000), wk =   0.0066445
        k(   47) = (   0.4600000  -0.0000000  -0.0000000), wk =   0.0066445
        k(   48) = (   0.4700000  -0.0000000  -0.0000000), wk =   0.0066445
        k(   49) = (   0.4800000  -0.0000000  -0.0000000), wk =   0.0066445
        k(   50) = (   0.4900000  -0.0000000  -0.0000000), wk =   0.0066445
        k(   51) = (   0.5000000  -0.0000000  -0.0000000), wk =   0.0066445
        k(   52) = (   0.4966660   0.0066660  -0.0000000), wk =   0.0066445
        k(   53) = (   0.4933320   0.0133320  -0.0000000), wk =   0.0066445
        k(   54) = (   0.4899980   0.0199980  -0.0000000), wk =   0.0066445
        k(   55) = (   0.4866640   0.0266640  -0.0000000), wk =   0.0066445
        k(   56) = (   0.4833300   0.0333300  -0.0000000), wk =   0.0066445
        k(   57) = (   0.4799960   0.0399960  -0.0000000), wk =   0.0066445
        k(   58) = (   0.4766620   0.0466620  -0.0000000), wk =   0.0066445
        k(   59) = (   0.4733280   0.0533280  -0.0000000), wk =   0.0066445
        k(   60) = (   0.4699940   0.0599940  -0.0000000), wk =   0.0066445
        k(   61) = (   0.4666600   0.0666600  -0.0000000), wk =   0.0066445
        k(   62) = (   0.4633260   0.0733260  -0.0000000), wk =   0.0066445
        k(   63) = (   0.4599920   0.0799920  -0.0000000), wk =   0.0066445
        k(   64) = (   0.4566580   0.0866580  -0.0000000), wk =   0.0066445
        k(   65) = (   0.4533240   0.0933240  -0.0000000), wk =   0.0066445
        k(   66) = (   0.4499900   0.0999900  -0.0000000), wk =   0.0066445
        k(   67) = (   0.4466560   0.1066560  -0.0000000), wk =   0.0066445
        k(   68) = (   0.4433220   0.1133220  -0.0000000), wk =   0.0066445
        k(   69) = (   0.4399880   0.1199880  -0.0000000), wk =   0.0066445
        k(   70) = (   0.4366540   0.1266540  -0.0000000), wk =   0.0066445
        k(   71) = (   0.4333200   0.1333200  -0.0000000), wk =   0.0066445
        k(   72) = (   0.4299860   0.1399860  -0.0000000), wk =   0.0066445
        k(   73) = (   0.4266520   0.1466520  -0.0000000), wk =   0.0066445
        k(   74) = (   0.4233180   0.1533180  -0.0000000), wk =   0.0066445
        k(   75) = (   0.4199840   0.1599840  -0.0000000), wk =   0.0066445
        k(   76) = (   0.4166500   0.1666500  -0.0000000), wk =   0.0066445
        k(   77) = (   0.4133160   0.1733160  -0.0000000), wk =   0.0066445
        k(   78) = (   0.4099820   0.1799820  -0.0000000), wk =   0.0066445
        k(   79) = (   0.4066480   0.1866480  -0.0000000), wk =   0.0066445
        k(   80) = (   0.4033140   0.1933140  -0.0000000), wk =   0.0066445
        k(   81) = (   0.3999800   0.1999800  -0.0000000), wk =   0.0066445
        k(   82) = (   0.3966460   0.2066460  -0.0000000), wk =   0.0066445
        k(   83) = (   0.3933120   0.2133120  -0.0000000), wk =   0.0066445
        k(   84) = (   0.3899780   0.2199780  -0.0000000), wk =   0.0066445
        k(   85) = (   0.3866440   0.2266440  -0.0000000), wk =   0.0066445
        k(   86) = (   0.3833100   0.2333100  -0.0000000), wk =   0.0066445
        k(   87) = (   0.3799760   0.2399760  -0.0000000), wk =   0.0066445
        k(   88) = (   0.3766420   0.2466420  -0.0000000), wk =   0.0066445
        k(   89) = (   0.3733080   0.2533080  -0.0000000), wk =   0.0066445
        k(   90) = (   0.3699740   0.2599740  -0.0000000), wk =   0.0066445
        k(   91) = (   0.3666400   0.2666400  -0.0000000), wk =   0.0066445
        k(   92) = (   0.3633060   0.2733060  -0.0000000), wk =   0.0066445
        k(   93) = (   0.3599720   0.2799720  -0.0000000), wk =   0.0066445
        k(   94) = (   0.3566380   0.2866380  -0.0000000), wk =   0.0066445
        k(   95) = (   0.3533040   0.2933040  -0.0000000), wk =   0.0066445
        k(   96) = (   0.3499700   0.2999700  -0.0000000), wk =   0.0066445
        k(   97) = (   0.3466360   0.3066360  -0.0000000), wk =   0.0066445
        k(   98) = (   0.3433020   0.3133020  -0.0000000), wk =   0.0066445
        k(   99) = (   0.3399680   0.3199680  -0.0000000), wk =   0.0066445
        k(  100) = (   0.3366340   0.3266340  -0.0000000), wk =   0.0066445
        k(  101) = (   0.3333000   0.3333000   0.0000000), wk =   0.0066445
        k(  102) = (   0.3266340   0.3266340  -0.0000000), wk =   0.0066445
        k(  103) = (   0.3199680   0.3199680   0.0000000), wk =   0.0066445
        k(  104) = (   0.3133020   0.3133020  -0.0000000), wk =   0.0066445
        k(  105) = (   0.3066360   0.3066360   0.0000000), wk =   0.0066445
        k(  106) = (   0.2999700   0.2999700  -0.0000000), wk =   0.0066445
        k(  107) = (   0.2933040   0.2933040   0.0000000), wk =   0.0066445
        k(  108) = (   0.2866380   0.2866380  -0.0000000), wk =   0.0066445
        k(  109) = (   0.2799720   0.2799720  -0.0000000), wk =   0.0066445
        k(  110) = (   0.2733060   0.2733060   0.0000000), wk =   0.0066445
        k(  111) = (   0.2666400   0.2666400  -0.0000000), wk =   0.0066445
        k(  112) = (   0.2599740   0.2599740   0.0000000), wk =   0.0066445
        k(  113) = (   0.2533080   0.2533080  -0.0000000), wk =   0.0066445
        k(  114) = (   0.2466420   0.2466420   0.0000000), wk =   0.0066445
        k(  115) = (   0.2399760   0.2399760   0.0000000), wk =   0.0066445
        k(  116) = (   0.2333100   0.2333100   0.0000000), wk =   0.0066445
        k(  117) = (   0.2266440   0.2266440  -0.0000000), wk =   0.0066445
        k(  118) = (   0.2199780   0.2199780   0.0000000), wk =   0.0066445
        k(  119) = (   0.2133120   0.2133120   0.0000000), wk =   0.0066445
        k(  120) = (   0.2066460   0.2066460   0.0000000), wk =   0.0066445
        k(  121) = (   0.1999800   0.1999800   0.0000000), wk =   0.0066445
        k(  122) = (   0.1933140   0.1933140  -0.0000000), wk =   0.0066445
        k(  123) = (   0.1866480   0.1866480  -0.0000000), wk =   0.0066445
        k(  124) = (   0.1799820   0.1799820  -0.0000000), wk =   0.0066445
        k(  125) = (   0.1733160   0.1733160  -0.0000000), wk =   0.0066445
        k(  126) = (   0.1666500   0.1666500   0.0000000), wk =   0.0066445
        k(  127) = (   0.1599840   0.1599840   0.0000000), wk =   0.0066445
        k(  128) = (   0.1533180   0.1533180   0.0000000), wk =   0.0066445
        k(  129) = (   0.1466520   0.1466520  -0.0000000), wk =   0.0066445
        k(  130) = (   0.1399860   0.1399860  -0.0000000), wk =   0.0066445
        k(  131) = (   0.1333200   0.1333200  -0.0000000), wk =   0.0066445
        k(  132) = (   0.1266540   0.1266540  -0.0000000), wk =   0.0066445
        k(  133) = (   0.1199880   0.1199880   0.0000000), wk =   0.0066445
        k(  134) = (   0.1133220   0.1133220   0.0000000), wk =   0.0066445
        k(  135) = (   0.1066560   0.1066560   0.0000000), wk =   0.0066445
        k(  136) = (   0.0999900   0.0999900  -0.0000000), wk =   0.0066445
        k(  137) = (   0.0933240   0.0933240  -0.0000000), wk =   0.0066445
        k(  138) = (   0.0866580   0.0866580  -0.0000000), wk =   0.0066445
        k(  139) = (   0.0799920   0.0799920   0.0000000), wk =   0.0066445
        k(  140) = (   0.0733260   0.0733260  -0.0000000), wk =   0.0066445
        k(  141) = (   0.0666600   0.0666600  -0.0000000), wk =   0.0066445
        k(  142) = (   0.0599940   0.0599940   0.0000000), wk =   0.0066445
        k(  143) = (   0.0533280   0.0533280  -0.0000000), wk =   0.0066445
        k(  144) = (   0.0466620   0.0466620  -0.0000000), wk =   0.0066445
        k(  145) = (   0.0399960   0.0399960   0.0000000), wk =   0.0066445
        k(  146) = (   0.0333300   0.0333300  -0.0000000), wk =   0.0066445
        k(  147) = (   0.0266640   0.0266640  -0.0000000), wk =   0.0066445
        k(  148) = (   0.0199980   0.0199980  -0.0000000), wk =   0.0066445
        k(  149) = (   0.0133320   0.0133320   0.0000000), wk =   0.0066445
        k(  150) = (   0.0066660   0.0066660   0.0000000), wk =   0.0066445
        k(  151) = (   0.0000000   0.0000000   0.0000000), wk =   0.0066445
        k(  152) = (   0.0000000   0.0000000   0.0100000), wk =   0.0066445
        k(  153) = (   0.0000000   0.0000000   0.0200000), wk =   0.0066445
        k(  154) = (   0.0000000   0.0000000   0.0300000), wk =   0.0066445
        k(  155) = (   0.0000000   0.0000000   0.0400000), wk =   0.0066445
        k(  156) = (   0.0000000   0.0000000   0.0500000), wk =   0.0066445
        k(  157) = (   0.0000000   0.0000000   0.0600000), wk =   0.0066445
        k(  158) = (   0.0000000   0.0000000   0.0700000), wk =   0.0066445
        k(  159) = (   0.0000000   0.0000000   0.0800000), wk =   0.0066445
        k(  160) = (   0.0000000   0.0000000   0.0900000), wk =   0.0066445
        k(  161) = (   0.0000000   0.0000000   0.1000000), wk =   0.0066445
        k(  162) = (   0.0000000   0.0000000   0.1100000), wk =   0.0066445
        k(  163) = (   0.0000000   0.0000000   0.1200000), wk =   0.0066445
        k(  164) = (   0.0000000   0.0000000   0.1300000), wk =   0.0066445
        k(  165) = (   0.0000000   0.0000000   0.1400000), wk =   0.0066445
        k(  166) = (   0.0000000   0.0000000   0.1500000), wk =   0.0066445
        k(  167) = (   0.0000000   0.0000000   0.1600000), wk =   0.0066445
        k(  168) = (   0.0000000   0.0000000   0.1700000), wk =   0.0066445
        k(  169) = (   0.0000000   0.0000000   0.1800000), wk =   0.0066445
        k(  170) = (   0.0000000   0.0000000   0.1900000), wk =   0.0066445
        k(  171) = (   0.0000000   0.0000000   0.2000000), wk =   0.0066445
        k(  172) = (   0.0000000   0.0000000   0.2100000), wk =   0.0066445
        k(  173) = (   0.0000000   0.0000000   0.2200000), wk =   0.0066445
        k(  174) = (   0.0000000   0.0000000   0.2300000), wk =   0.0066445
        k(  175) = (   0.0000000   0.0000000   0.2400000), wk =   0.0066445
        k(  176) = (   0.0000000   0.0000000   0.2500000), wk =   0.0066445
        k(  177) = (   0.0000000   0.0000000   0.2600000), wk =   0.0066445
        k(  178) = (   0.0000000   0.0000000   0.2700000), wk =   0.0066445
        k(  179) = (   0.0000000   0.0000000   0.2800000), wk =   0.0066445
        k(  180) = (   0.0000000   0.0000000   0.2900000), wk =   0.0066445
        k(  181) = (   0.0000000   0.0000000   0.3000000), wk =   0.0066445
        k(  182) = (   0.0000000   0.0000000   0.3100000), wk =   0.0066445
        k(  183) = (   0.0000000   0.0000000   0.3200000), wk =   0.0066445
        k(  184) = (   0.0000000   0.0000000   0.3300000), wk =   0.0066445
        k(  185) = (   0.0000000   0.0000000   0.3400000), wk =   0.0066445
        k(  186) = (   0.0000000   0.0000000   0.3500000), wk =   0.0066445
        k(  187) = (   0.0000000   0.0000000   0.3600000), wk =   0.0066445
        k(  188) = (   0.0000000   0.0000000   0.3700000), wk =   0.0066445
        k(  189) = (   0.0000000   0.0000000   0.3800000), wk =   0.0066445
        k(  190) = (   0.0000000   0.0000000   0.3900000), wk =   0.0066445
        k(  191) = (   0.0000000   0.0000000   0.4000000), wk =   0.0066445
        k(  192) = (   0.0000000   0.0000000   0.4100000), wk =   0.0066445
        k(  193) = (   0.0000000   0.0000000   0.4200000), wk =   0.0066445
        k(  194) = (   0.0000000   0.0000000   0.4300000), wk =   0.0066445
        k(  195) = (   0.0000000   0.0000000   0.4400000), wk =   0.0066445
        k(  196) = (   0.0000000   0.0000000   0.4500000), wk =   0.0066445
        k(  197) = (   0.0000000   0.0000000   0.4600000), wk =   0.0066445
        k(  198) = (   0.0000000   0.0000000   0.4700000), wk =   0.0066445
        k(  199) = (   0.0000000   0.0000000   0.4800000), wk =   0.0066445
        k(  200) = (   0.0000000   0.0000000   0.4900000), wk =   0.0066445
        k(  201) = (   0.0000000   0.0000000   0.5000000), wk =   0.0066445
        k(  202) = (   0.0100000   0.0000000   0.5000000), wk =   0.0066445
        k(  203) = (   0.0200000   0.0000000   0.5000000), wk =   0.0066445
        k(  204) = (   0.0300000  -0.0000000   0.5000000), wk =   0.0066445
        k(  205) = (   0.0400000   0.0000000   0.5000000), wk =   0.0066445
        k(  206) = (   0.0500000  -0.0000000   0.5000000), wk =   0.0066445
        k(  207) = (   0.0600000  -0.0000000   0.5000000), wk =   0.0066445
        k(  208) = (   0.0700000  -0.0000000   0.5000000), wk =   0.0066445
        k(  209) = (   0.0800000   0.0000000   0.5000000), wk =   0.0066445
        k(  210) = (   0.0900000  -0.0000000   0.5000000), wk =   0.0066445
        k(  211) = (   0.1000000  -0.0000000   0.5000000), wk =   0.0066445
        k(  212) = (   0.1100000   0.0000000   0.5000000), wk =   0.0066445
        k(  213) = (   0.1200000  -0.0000000   0.5000000), wk =   0.0066445
        k(  214) = (   0.1300000   0.0000000   0.5000000), wk =   0.0066445
        k(  215) = (   0.1400000  -0.0000000   0.5000000), wk =   0.0066445
        k(  216) = (   0.1500000  -0.0000000   0.5000000), wk =   0.0066445
        k(  217) = (   0.1600000   0.0000000   0.5000000), wk =   0.0066445
        k(  218) = (   0.1700000  -0.0000000   0.5000000), wk =   0.0066445
        k(  219) = (   0.1800000  -0.0000000   0.5000000), wk =   0.0066445
        k(  220) = (   0.1900000   0.0000000   0.5000000), wk =   0.0066445
        k(  221) = (   0.2000000  -0.0000000   0.5000000), wk =   0.0066445
        k(  222) = (   0.2100000  -0.0000000   0.5000000), wk =   0.0066445
        k(  223) = (   0.2200000   0.0000000   0.5000000), wk =   0.0066445
        k(  224) = (   0.2300000  -0.0000000   0.5000000), wk =   0.0066445
        k(  225) = (   0.2400000  -0.0000000   0.5000000), wk =   0.0066445
        k(  226) = (   0.2500000  -0.0000000   0.5000000), wk =   0.0066445
        k(  227) = (   0.2600000   0.0000000   0.5000000), wk =   0.0066445
        k(  228) = (   0.2700000   0.0000000   0.5000000), wk =   0.0066445
        k(  229) = (   0.2800000  -0.0000000   0.5000000), wk =   0.0066445
        k(  230) = (   0.2900000  -0.0000000   0.5000000), wk =   0.0066445
        k(  231) = (   0.3000000  -0.0000000   0.5000000), wk =   0.0066445
        k(  232) = (   0.3100000  -0.0000000   0.5000000), wk =   0.0066445
        k(  233) = (   0.3200000   0.0000000   0.5000000), wk =   0.0066445
        k(  234) = (   0.3300000  -0.0000000   0.5000000), wk =   0.0066445
        k(  235) = (   0.3400000  -0.0000000   0.5000000), wk =   0.0066445
        k(  236) = (   0.3500000  -0.0000000   0.5000000), wk =   0.0066445
        k(  237) = (   0.3600000  -0.0000000   0.5000000), wk =   0.0066445
        k(  238) = (   0.3700000  -0.0000000   0.5000000), wk =   0.0066445
        k(  239) = (   0.3800000   0.0000000   0.5000000), wk =   0.0066445
        k(  240) = (   0.3900000  -0.0000000   0.5000000), wk =   0.0066445
        k(  241) = (   0.4000000  -0.0000000   0.5000000), wk =   0.0066445
        k(  242) = (   0.4100000  -0.0000000   0.5000000), wk =   0.0066445
        k(  243) = (   0.4200000  -0.0000000   0.5000000), wk =   0.0066445
        k(  244) = (   0.4300000  -0.0000000   0.5000000), wk =   0.0066445
        k(  245) = (   0.4400000   0.0000000   0.5000000), wk =   0.0066445
        k(  246) = (   0.4500000  -0.0000000   0.5000000), wk =   0.0066445
        k(  247) = (   0.4600000  -0.0000000   0.5000000), wk =   0.0066445
        k(  248) = (   0.4700000  -0.0000000   0.5000000), wk =   0.0066445
        k(  249) = (   0.4800000  -0.0000000   0.5000000), wk =   0.0066445
        k(  250) = (   0.4900000  -0.0000000   0.5000000), wk =   0.0066445
        k(  251) = (   0.5000000  -0.0000000   0.5000000), wk =   0.0066445
        k(  252) = (   0.4966660   0.0066660   0.5000000), wk =   0.0066445
        k(  253) = (   0.4933320   0.0133320   0.5000000), wk =   0.0066445
        k(  254) = (   0.4899980   0.0199980   0.5000000), wk =   0.0066445
        k(  255) = (   0.4866640   0.0266640   0.5000000), wk =   0.0066445
        k(  256) = (   0.4833300   0.0333300   0.5000000), wk =   0.0066445
        k(  257) = (   0.4799960   0.0399960   0.5000000), wk =   0.0066445
        k(  258) = (   0.4766620   0.0466620   0.5000000), wk =   0.0066445
        k(  259) = (   0.4733280   0.0533280   0.5000000), wk =   0.0066445
        k(  260) = (   0.4699940   0.0599940   0.5000000), wk =   0.0066445
        k(  261) = (   0.4666600   0.0666600   0.5000000), wk =   0.0066445
        k(  262) = (   0.4633260   0.0733260   0.5000000), wk =   0.0066445
        k(  263) = (   0.4599920   0.0799920   0.5000000), wk =   0.0066445
        k(  264) = (   0.4566580   0.0866580   0.5000000), wk =   0.0066445
        k(  265) = (   0.4533240   0.0933240   0.5000000), wk =   0.0066445
        k(  266) = (   0.4499900   0.0999900   0.5000000), wk =   0.0066445
        k(  267) = (   0.4466560   0.1066560   0.5000000), wk =   0.0066445
        k(  268) = (   0.4433220   0.1133220   0.5000000), wk =   0.0066445
        k(  269) = (   0.4399880   0.1199880   0.5000000), wk =   0.0066445
        k(  270) = (   0.4366540   0.1266540   0.5000000), wk =   0.0066445
        k(  271) = (   0.4333200   0.1333200   0.5000000), wk =   0.0066445
        k(  272) = (   0.4299860   0.1399860   0.5000000), wk =   0.0066445
        k(  273) = (   0.4266520   0.1466520   0.5000000), wk =   0.0066445
        k(  274) = (   0.4233180   0.1533180   0.5000000), wk =   0.0066445
        k(  275) = (   0.4199840   0.1599840   0.5000000), wk =   0.0066445
        k(  276) = (   0.4166500   0.1666500   0.5000000), wk =   0.0066445
        k(  277) = (   0.4133160   0.1733160   0.5000000), wk =   0.0066445
        k(  278) = (   0.4099820   0.1799820   0.5000000), wk =   0.0066445
        k(  279) = (   0.4066480   0.1866480   0.5000000), wk =   0.0066445
        k(  280) = (   0.4033140   0.1933140   0.5000000), wk =   0.0066445
        k(  281) = (   0.3999800   0.1999800   0.5000000), wk =   0.0066445
        k(  282) = (   0.3966460   0.2066460   0.5000000), wk =   0.0066445
        k(  283) = (   0.3933120   0.2133120   0.5000000), wk =   0.0066445
        k(  284) = (   0.3899780   0.2199780   0.5000000), wk =   0.0066445
        k(  285) = (   0.3866440   0.2266440   0.5000000), wk =   0.0066445
        k(  286) = (   0.3833100   0.2333100   0.5000000), wk =   0.0066445
        k(  287) = (   0.3799760   0.2399760   0.5000000), wk =   0.0066445
        k(  288) = (   0.3766420   0.2466420   0.5000000), wk =   0.0066445
        k(  289) = (   0.3733080   0.2533080   0.5000000), wk =   0.0066445
        k(  290) = (   0.3699740   0.2599740   0.5000000), wk =   0.0066445
        k(  291) = (   0.3666400   0.2666400   0.5000000), wk =   0.0066445
        k(  292) = (   0.3633060   0.2733060   0.5000000), wk =   0.0066445
        k(  293) = (   0.3599720   0.2799720   0.5000000), wk =   0.0066445
        k(  294) = (   0.3566380   0.2866380   0.5000000), wk =   0.0066445
        k(  295) = (   0.3533040   0.2933040   0.5000000), wk =   0.0066445
        k(  296) = (   0.3499700   0.2999700   0.5000000), wk =   0.0066445
        k(  297) = (   0.3466360   0.3066360   0.5000000), wk =   0.0066445
        k(  298) = (   0.3433020   0.3133020   0.5000000), wk =   0.0066445
        k(  299) = (   0.3399680   0.3199680   0.5000000), wk =   0.0066445
        k(  300) = (   0.3366340   0.3266340   0.5000000), wk =   0.0066445
        k(  301) = (   0.3333000   0.3333000   0.5000000), wk =   0.0066445

     Dense  grid:   110773 G-vectors     FFT dimensions: (  54,  54,  90)

     Smooth grid:    39149 G-vectors     FFT dimensions: (  40,  40,  60)

     Dynamical RAM for                 wfc:       2.99 MB

     Dynamical RAM for     wfc (w. buffer):       2.99 MB

     Dynamical RAM for           str. fact:       3.38 MB

     Dynamical RAM for           local pot:       0.00 MB

     Dynamical RAM for          nlocal pot:       4.48 MB

     Dynamical RAM for                qrad:       3.05 MB

     Dynamical RAM for          rho,v,vnew:      11.08 MB

     Dynamical RAM for           G-vectors:       6.64 MB

     Dynamical RAM for          h,s,v(r/c):       0.29 MB

     Dynamical RAM for          <psi|beta>:       0.04 MB

     Dynamical RAM for                 psi:       5.98 MB

     Dynamical RAM for                hpsi:       5.98 MB

     Dynamical RAM for                spsi:       5.98 MB

     Dynamical RAM for      wfcinit/wfcrot:       6.01 MB

     Dynamical RAM for           addusdens:      12.28 MB

     Estimated static dynamical RAM per process >      46.69 MB

     Estimated max dynamical RAM per process >      64.95 MB

     Estimated total dynamical RAM >       1.90 GB

     Check: negative core charge=   -0.000010

     The potential is recalculated from file :
     ../out/m2.save/charge-density

     Starting wfcs are   33 randomized atomic wfcs +    7 random wfcs

     Band Structure Calculation
     Davidson diagonalization with overlap

     Computing kpt #:     1  of    11 on this pool
     total cpu time spent up to now is        7.0 secs

     Computing kpt #:     2  of    11 on this pool
     total cpu time spent up to now is       10.8 secs

     Computing kpt #:     3  of    11 on this pool
     total cpu time spent up to now is       14.5 secs

     Computing kpt #:     4  of    11 on this pool
     total cpu time spent up to now is       18.1 secs

     Computing kpt #:     5  of    11 on this pool
     total cpu time spent up to now is       21.8 secs

     Computing kpt #:     6  of    11 on this pool
     total cpu time spent up to now is       25.6 secs

     Computing kpt #:     7  of    11 on this pool
     total cpu time spent up to now is       29.7 secs

     Computing kpt #:     8  of    11 on this pool
     total cpu time spent up to now is       33.7 secs

     Computing kpt #:     9  of    11 on this pool
     total cpu time spent up to now is       37.7 secs

     Computing kpt #:    10  of    11 on this pool
     total cpu time spent up to now is       41.6 secs

     Computing kpt #:    11  of    11 on this pool
     total cpu time spent up to now is       43.5 secs

     ethr =  1.67E-12,  avg # of iterations = 60.8

     total cpu time spent up to now is       43.5 secs

     End of band structure calculation

          k =-0.0000 0.0000 0.0000 (  4925 PWs)   bands (ev):

   -69.7595 -69.1605 -69.1596 -36.5110 -36.5074 -36.5074 -35.9135 -35.9135
   -35.9105 -35.9105 -35.9092 -35.9088 -14.7275 -14.7275 -14.7269 -14.7269
   -14.7174 -14.7164 -14.6980 -14.6980 -14.6881 -14.6881  -3.9691  -3.0900
     2.6305   6.4565   6.4565   7.1589   7.1589   7.2099   7.4085   8.2238
    10.5192  10.5192  11.2167  11.4351  11.4351  11.8484  12.5583  12.5583

          k =-0.0100-0.0058 0.0000 (  4925 PWs)   bands (ev):

   -69.7595 -69.1605 -69.1596 -36.5110 -36.5074 -36.5074 -35.9135 -35.9135
   -35.9105 -35.9105 -35.9092 -35.9088 -14.7275 -14.7275 -14.7269 -14.7269
   -14.7174 -14.7164 -14.6980 -14.6980 -14.6881 -14.6881  -3.9686  -3.0897
     2.6314   6.4455   6.4540   7.0653   7.1595   7.3045   7.4098   8.2317
    10.5091  10.5204  11.2212  11.4265  11.4352  11.8561  12.5243  12.5356

          k =-0.0200-0.0115 0.0000 (  4913 PWs)   bands (ev):

   -69.7594 -69.1605 -69.1596 -36.5107 -36.5072 -36.5068 -35.9133 -35.9127
   -35.9103 -35.9102 -35.9088 -35.9085 -14.7275 -14.7275 -14.7269 -14.7269
   -14.7174 -14.7163 -14.6980 -14.6980 -14.6881 -14.6881  -3.9669  -3.0889
     2.6340   6.4133   6.4465   6.9523   7.1611   7.4122   7.4225   8.2554
    10.4798  10.5242  11.2339  11.4019  11.4354  11.8794  12.4608  12.4986

          k =-0.0300-0.0173 0.0000 (  4909 PWs)   bands (ev):

   -69.7594 -69.1605 -69.1596 -36.5104 -36.5071 -36.5070 -35.9131 -35.9131
   -35.9102 -35.9101 -35.9086 -35.9082 -14.7276 -14.7275 -14.7268 -14.7268
   -14.7174 -14.7163 -14.6980 -14.6980 -14.6881 -14.6880  -3.9641  -3.0876
     2.6381   6.3616   6.4343   6.8408   7.1637   7.4171   7.5391   8.2932
    10.4348  10.5304  11.2526  11.3627  11.4353  11.9143  12.3896  12.4645

          k =-0.0400-0.0231 0.0000 (  4903 PWs)   bands (ev):

   -69.7594 -69.1605 -69.1596 -36.5101 -36.5069 -36.5069 -35.9132 -35.9130
   -35.9100 -35.9099 -35.9084 -35.9079 -14.7276 -14.7275 -14.7268 -14.7267
   -14.7173 -14.7163 -14.6980 -14.6980 -14.6881 -14.6880  -3.9604  -3.0858
     2.6443   6.2934   6.4175   6.7317   7.1667   7.4205   7.6550   8.3443
    10.3793  10.5395  11.2747  11.3141  11.4344  11.9549  12.3206  12.4371

          k =-0.0500-0.0289 0.0000 (  4893 PWs)   bands (ev):

   -69.7594 -69.1605 -69.1596 -36.5098 -36.5068 -36.5065 -35.9130 -35.9127
   -35.9100 -35.9094 -35.9082 -35.9075 -14.7277 -14.7275 -14.7267 -14.7266
   -14.7173 -14.7163 -14.6980 -14.6979 -14.6881 -14.6880  -3.9556  -3.0835
     2.6523   6.2118   6.3969   6.6254   7.1701   7.4220   7.7695   8.4074
    10.3163  10.5511  11.2544  11.3031  11.4325  11.9849  12.2698  12.4179

          k =-0.0600-0.0346 0.0000 (  4897 PWs)   bands (ev):

   -69.7594 -69.1605 -69.1596 -36.5100 -36.5069 -36.5067 -35.9132 -35.9131
   -35.9099 -35.9094 -35.9084 -35.9075 -14.7278 -14.7276 -14.7267 -14.7265
   -14.7173 -14.7162 -14.6980 -14.6979 -14.6882 -14.6879  -3.9499  -3.0808
     2.6616   6.1193   6.3726   6.5216   7.1732   7.4208   7.8815   8.4789
    10.2491  10.5648  11.1930  11.3301  11.4283  11.9776  12.2621  12.4076

          k =-0.0700-0.0404 0.0000 (  4907 PWs)   bands (ev):

   -69.7594 -69.1605 -69.1596 -36.5102 -36.5072 -36.5071 -35.9135 -35.9135
   -35.9103 -35.9098 -35.9088 -35.9076 -14.7279 -14.7276 -14.7266 -14.7265
   -14.7172 -14.7162 -14.6979 -14.6978 -14.6882 -14.6879  -3.9431  -3.0775
     2.6724   6.0189   6.3452   6.4199   7.1757   7.4163   7.9902   8.5568
    10.1812  10.5808  11.1284  11.3593  11.4222  11.9278  12.3004  12.4071

          k =-0.0800-0.0462 0.0000 (  4913 PWs)   bands (ev):

   -69.7594 -69.1605 -69.1596 -36.5104 -36.5077 -36.5071 -35.9139 -35.9135
   -35.9109 -35.9098 -35.9089 -35.9077 -14.7281 -14.7277 -14.7266 -14.7264
   -14.7172 -14.7162 -14.6979 -14.6978 -14.6883 -14.6879  -3.9353  -3.0739
     2.6850   5.9128   6.3153   6.3201   7.1775   7.4087   8.0960   8.6386
    10.1152  10.5990  11.0627  11.3904  11.4144  11.8573  12.3577  12.4167

          k =-0.0900-0.0520 0.0000 (  4915 PWs)   bands (ev):

   -69.7594 -69.1605 -69.1597 -36.5104 -36.5079 -36.5071 -35.9141 -35.9136
   -35.9111 -35.9098 -35.9089 -35.9077 -14.7282 -14.7277 -14.7266 -14.7262
   -14.7172 -14.7161 -14.6979 -14.6977 -14.6883 -14.6878  -3.9266  -3.0697
     2.6994   5.8028   6.2218   6.2831   7.1782   7.3978   8.1981   8.7204
    10.0553  10.6191  10.9978  11.4050  11.4227  11.7809  12.4081  12.4362

          k =-0.1000-0.0577 0.0000 (  4907 PWs)   bands (ev):

   -69.7594 -69.1605 -69.1596 -36.5103 -36.5078 -36.5067 -35.9140 -35.9131
   -35.9111 -35.9096 -35.9087 -35.9075 -14.7283 -14.7277 -14.7265 -14.7261
   -14.7171 -14.7161 -14.6979 -14.6977 -14.6884 -14.6878  -3.9168  -3.0652
     2.7158   5.6906   6.1248   6.2493   7.1775   7.3837   8.2967   8.7983
    10.0043  10.6406  10.9344  11.3953  11.4540  11.7072  12.4340  12.4656

          k =-0.1100-0.0635 0.0000 (  4915 PWs)   bands (ev):

   -69.7594 -69.1605 -69.1597 -36.5104 -36.5079 -36.5073 -35.9141 -35.9135
   -35.9112 -35.9102 -35.9089 -35.9076 -14.7284 -14.7277 -14.7265 -14.7260
   -14.7170 -14.7160 -14.6978 -14.6976 -14.6885 -14.6877  -3.9060  -3.0602
     2.7332   5.5769   6.0286   6.2137   7.1753   7.3665   8.3912   8.8663
     9.9659  10.6620  10.8731  11.3856  11.4764  11.6463  12.4352  12.5038

          k =-0.1200-0.0693 0.0000 (  4911 PWs)   bands (ev):

   -69.7594 -69.1605 -69.1596 -36.5104 -36.5076 -36.5072 -35.9139 -35.9135
   -35.9111 -35.9102 -35.9087 -35.9076 -14.7286 -14.7278 -14.7264 -14.7258
   -14.7170 -14.7159 -14.6978 -14.6975 -14.6885 -14.6877  -3.8943  -3.0549
     2.7526   5.4626   5.9334   6.1770   7.1715   7.3462   8.4820   8.9198
     9.9462  10.6834  10.8151  11.3784  11.4670  11.6231  12.4235  12.5506

          k =-0.1300-0.0751 0.0000 (  4905 PWs)   bands (ev):

   -69.7594 -69.1605 -69.1596 -36.5105 -36.5072 -36.5071 -35.9134 -35.9134
   -35.9111 -35.9101 -35.9085 -35.9075 -14.7287 -14.7278 -14.7264 -14.7257
   -14.7169 -14.7159 -14.6977 -14.6974 -14.6886 -14.6876  -3.8816  -3.0492
     2.7737   5.3483   5.8392   6.1396   7.1661   7.3229   8.5685   8.9535
     9.9484  10.7030  10.7608  11.3752  11.4192  11.6449  12.4067  12.6051

          k =-0.1400-0.0808 0.0000 (  4913 PWs)   bands (ev):

   -69.7594 -69.1605 -69.1597 -36.5108 -36.5076 -36.5072 -35.9138 -35.9135
   -35.9116 -35.9101 -35.9090 -35.9076 -14.7288 -14.7278 -14.7264 -14.7256
   -14.7168 -14.7158 -14.6977 -14.6973 -14.6887 -14.6875  -3.8681  -3.0433
     2.7962   5.2344   5.7455   6.1014   7.1590   7.2964   8.6494   8.9635
     9.9735  10.7119  10.7193  11.3585  11.3778  11.6869  12.3893  12.6664

          k =-0.1500-0.0866 0.0000 (  4911 PWs)   bands (ev):

   -69.7594 -69.1605 -69.1597 -36.5108 -36.5074 -36.5073 -35.9138 -35.9137
   -35.9114 -35.9102 -35.9087 -35.9076 -14.7290 -14.7278 -14.7264 -14.7254
   -14.7167 -14.7157 -14.6976 -14.6972 -14.6888 -14.6874  -3.8536  -3.0370
     2.8205   5.1215   5.6532   6.0628   7.1502   7.2669   8.7253   8.9527
    10.0195  10.6705  10.7309  11.2974  11.3881  11.7377  12.3738  12.7341

          k =-0.1600-0.0924 0.0000 (  4915 PWs)   bands (ev):

   -69.7594 -69.1605 -69.1597 -36.5110 -36.5075 -36.5074 -35.9139 -35.9138
   -35.9116 -35.9103 -35.9088 -35.9077 -14.7291 -14.7278 -14.7263 -14.7253
   -14.7167 -14.7157 -14.6976 -14.6971 -14.6889 -14.6874  -3.8384  -3.0306
     2.8464   5.0098   5.5616   6.0240   7.1399   7.2344   8.7947   8.9244
    10.0787  10.6390  10.7370  11.2398  11.4079  11.7926  12.3622  12.8073

          k =-0.1700-0.0981 0.0000 (  4919 PWs)   bands (ev):

   -69.7594 -69.1605 -69.1597 -36.5110 -36.5078 -36.5075 -35.9141 -35.9140
   -35.9117 -35.9106 -35.9088 -35.9078 -14.7293 -14.7278 -14.7263 -14.7251
   -14.7166 -14.7156 -14.6975 -14.6970 -14.6890 -14.6873  -3.8223  -3.0239
     2.8739   4.8996   5.4712   5.9851   7.1282   7.1988   8.8531   8.8878
    10.1407  10.6228  10.7367  11.1878  11.4377  11.8497  12.3566  12.8856

          k =-0.1800-0.1039 0.0000 (  4919 PWs)   bands (ev):

   -69.7594 -69.1604 -69.1597 -36.5109 -36.5078 -36.5076 -35.9143 -35.9142
   -35.9119 -35.9106 -35.9087 -35.9074 -14.7294 -14.7278 -14.7263 -14.7250
   -14.7165 -14.7155 -14.6974 -14.6969 -14.6891 -14.6872  -3.8054  -3.0170
     2.9031   4.7910   5.3823   5.9465   7.1151   7.1603   8.8279   8.9199
    10.1927  10.6301  10.7304  11.1425  11.4777  11.9064  12.3595  12.9686

          k =-0.1900-0.1097 0.0000 (  4915 PWs)   bands (ev):

   -69.7594 -69.1604 -69.1597 -36.5109 -36.5076 -36.5075 -35.9142 -35.9141
   -35.9119 -35.9103 -35.9086 -35.9074 -14.7296 -14.7278 -14.7263 -14.7248
   -14.7164 -14.7154 -14.6974 -14.6968 -14.6892 -14.6871  -3.7877  -3.0100
     2.9338   4.6843   5.2948   5.9081   7.1008   7.1186   8.7729   8.9696
    10.2236  10.6682  10.7186  11.1058  11.5274  11.9595  12.3744  13.0559

          k =-0.2000-0.1155 0.0000 (  4909 PWs)   bands (ev):

   -69.7594 -69.1604 -69.1597 -36.5108 -36.5076 -36.5071 -35.9141 -35.9137
   -35.9116 -35.9103 -35.9084 -35.9073 -14.7297 -14.7278 -14.7262 -14.7246
   -14.7163 -14.7153 -14.6973 -14.6966 -14.6893 -14.6870  -3.7692  -3.0029
     2.9659   4.5797   5.2088   5.8701   7.0740   7.0854   8.7138   9.0133
    10.2311  10.7023  10.7351  11.0794  11.5858  12.0056  12.4049  13.1469

          k =-0.2100-0.1212 0.0000 (  4917 PWs)   bands (ev):

   -69.7594 -69.1604 -69.1597 -36.5109 -36.5079 -36.5075 -35.9144 -35.9141
   -35.9118 -35.9105 -35.9087 -35.9075 -14.7299 -14.7278 -14.7262 -14.7245
   -14.7162 -14.7152 -14.6972 -14.6965 -14.6894 -14.6869  -3.7502  -2.9958
     2.9994   4.4769   5.1240   5.8326   7.0264   7.0690   8.6526   9.0496
    10.2212  10.6823  10.8181  11.0667  11.6520  12.0423  12.4531  13.2412

          k =-0.2200-0.1270 0.0000 (  4912 PWs)   bands (ev):

   -69.7594 -69.1604 -69.1597 -36.5109 -36.5079 -36.5071 -35.9144 -35.9135
   -35.9117 -35.9105 -35.9086 -35.9074 -14.7300 -14.7278 -14.7262 -14.7243
   -14.7161 -14.7151 -14.6971 -14.6964 -14.6895 -14.6868  -3.7305  -2.9887
     3.0345   4.3768   5.0410   5.7958   6.9758   7.0518   8.5912   9.0793
    10.2012  10.6599  10.8995  11.0796  11.7252  12.0704  12.5194  13.3388

          k =-0.2300-0.1328 0.0000 (  4912 PWs)   bands (ev):

   -69.7594 -69.1604 -69.1597 -36.5109 -36.5079 -36.5071 -35.9144 -35.9135
   -35.9118 -35.9105 -35.9085 -35.9074 -14.7302 -14.7278 -14.7262 -14.7241
   -14.7160 -14.7150 -14.6970 -14.6962 -14.6896 -14.6867  -3.7101  -2.9817
     3.0708   4.2793   4.9598   5.7596   6.9223   7.0340   8.5301   9.1022
    10.1755  10.6356  10.9527  11.1370  11.8045  12.0923  12.6009  13.4391

          k =-0.2400-0.1386 0.0000 (  4908 PWs)   bands (ev):

   -69.7594 -69.1604 -69.1597 -36.5107 -36.5078 -36.5071 -35.9143 -35.9135
   -35.9117 -35.9104 -35.9082 -35.9073 -14.7303 -14.7278 -14.7262 -14.7240
   -14.7160 -14.7149 -14.6969 -14.6961 -14.6897 -14.6866  -3.6893  -2.9747
     3.1085   4.1844   4.8804   5.7242   6.8661   7.0157   8.4702   9.1191
    10.1463  10.6103  10.9800  11.2334  11.8893  12.1115  12.6945  13.5420

          k =-0.2500-0.1443 0.0000 (  4908 PWs)   bands (ev):

   -69.7594 -69.1604 -69.1597 -36.5107 -36.5078 -36.5070 -35.9143 -35.9135
   -35.9118 -35.9104 -35.9081 -35.9073 -14.7305 -14.7278 -14.7261 -14.7238
   -14.7159 -14.7147 -14.6968 -14.6960 -14.6898 -14.6865  -3.6679  -2.9680
     3.1474   4.0923   4.8028   5.6897   6.8072   6.9970   8.4116   9.1303
    10.1152  10.5841  11.0004  11.3456  11.9790  12.1311  12.7976  13.6471

          k =-0.2600-0.1501 0.0000 (  4914 PWs)   bands (ev):

   -69.7594 -69.1604 -69.1597 -36.5107 -36.5079 -36.5074 -35.9145 -35.9138
   -35.9119 -35.9105 -35.9083 -35.9074 -14.7307 -14.7277 -14.7261 -14.7236
   -14.7158 -14.7146 -14.6967 -14.6958 -14.6900 -14.6864  -3.6461  -2.9614
     3.1873   4.0032   4.7272   5.6561   6.7458   6.9781   8.3543   9.1366
    10.0828  10.5576  11.0228  11.4621  12.0731  12.1540  12.9081  13.7541

          k =-0.2700-0.1559 0.0000 (  4904 PWs)   bands (ev):

   -69.7594 -69.1604 -69.1597 -36.5107 -36.5077 -36.5067 -35.9142 -35.9133
   -35.9115 -35.9104 -35.9080 -35.9073 -14.7308 -14.7277 -14.7261 -14.7235
   -14.7157 -14.7145 -14.6965 -14.6957 -14.6901 -14.6863  -3.6238  -2.9551
     3.2283   3.9176   4.6539   5.6236   6.6821   6.9591   8.2998   9.1390
    10.0500  10.5313  11.0503  11.5777  12.1713  12.1834  13.0244  13.8628

          k =-0.2800-0.1617 0.0000 (  4904 PWs)   bands (ev):

   -69.7594 -69.1603 -69.1597 -36.5107 -36.5075 -36.5069 -35.9143 -35.9134
   -35.9118 -35.9098 -35.9080 -35.9073 -14.7309 -14.7277 -14.7261 -14.7233
   -14.7156 -14.7144 -14.6964 -14.6955 -14.6902 -14.6862  -3.6013  -2.9491
     3.2699   3.8352   4.5829   5.5921   6.6163   6.9402   8.2472   9.1377
    10.0171  10.5052  11.0818  11.6870  12.2226  12.2732  13.1451  13.9729

          k =-0.2900-0.1674 0.0000 (  4900 PWs)   bands (ev):

   -69.7594 -69.1603 -69.1597 -36.5107 -36.5074 -36.5066 -35.9142 -35.9131
   -35.9117 -35.9097 -35.9079 -35.9073 -14.7311 -14.7277 -14.7261 -14.7231
   -14.7155 -14.7143 -14.6963 -14.6954 -14.6903 -14.6861  -3.5784  -2.9435
     3.3110   3.7579   4.5142   5.5617   6.5486   6.9213   8.1965   9.1337
     9.9845  10.4796  11.1184  11.7855  12.2766  12.3784  13.2690  14.0840

          k =-0.3000-0.1732 0.0000 (  4902 PWs)   bands (ev):

   -69.7594 -69.1603 -69.1597 -36.5110 -36.5074 -36.5066 -35.9143 -35.9132
   -35.9119 -35.9097 -35.9078 -35.9075 -14.7312 -14.7277 -14.7261 -14.7230
   -14.7155 -14.7142 -14.6962 -14.6952 -14.6904 -14.6860  -3.5553  -2.9383
     3.3499   3.6867   4.4478   5.5324   6.4793   6.9027   8.1483   9.1274
     9.9524  10.4546  11.1589  11.8684  12.3490  12.4867  13.3945  14.1957

          k =-0.3100-0.1790 0.0000 (  4894 PWs)   bands (ev):

   -69.7594 -69.1603 -69.1597 -36.5105 -36.5074 -36.5064 -35.9143 -35.9128
   -35.9117 -35.9096 -35.9077 -35.9069 -14.7314 -14.7277 -14.7261 -14.7228
   -14.7154 -14.7141 -14.6961 -14.6951 -14.6905 -14.6859  -3.5322  -2.9336
     3.3832   3.6259   4.3841   5.5043   6.4086   6.8844   8.1031   9.1197
     9.9212  10.4303  11.2037  11.9357  12.4409  12.5979  13.5197  14.3076

          k =-0.3200-0.1848 0.0000 (  4902 PWs)   bands (ev):

   -69.7594 -69.1603 -69.1598 -36.5107 -36.5075 -36.5067 -35.9144 -35.9129
   -35.9120 -35.9097 -35.9081 -35.9072 -14.7315 -14.7277 -14.7261 -14.7227
   -14.7153 -14.7139 -14.6960 -14.6950 -14.6907 -14.6858  -3.5090  -2.9294
     3.3990   3.5862   4.3228   5.4775   6.3367   6.8666   8.0592   9.1103
     9.8909  10.4068  11.2508  11.9887  12.5492  12.7116  13.6417  14.3647

          k =-0.3300-0.1905 0.0000 (  4896 PWs)   bands (ev):

   -69.7594 -69.1603 -69.1598 -36.5106 -36.5073 -36.5065 -35.9142 -35.9126
   -35.9118 -35.9095 -35.9080 -35.9071 -14.7316 -14.7277 -14.7261 -14.7226
   -14.7153 -14.7138 -14.6958 -14.6948 -14.6908 -14.6857  -3.4857  -2.9257
     3.3830   3.5830   4.2645   5.4519   6.2640   6.8493   8.0188   9.1003
     9.8619  10.3846  11.3010  12.0322  12.6702  12.8278  13.7559  14.2778

          k =-0.3400-0.1963 0.0000 (  4892 PWs)   bands (ev):

   -69.7594 -69.1603 -69.1597 -36.5107 -36.5072 -36.5062 -35.9142 -35.9123
   -35.9115 -35.9094 -35.9079 -35.9073 -14.7318 -14.7277 -14.7261 -14.7224
   -14.7152 -14.7137 -14.6957 -14.6947 -14.6909 -14.6856  -3.4627  -2.9226
     3.3417   3.6096   4.2090   5.4276   6.1905   6.8326   7.9806   9.0897
     9.8343  10.3633  11.3535  12.0698  12.7996  12.9463  13.8529  14.1978

          k =-0.3500-0.2021 0.0000 (  4888 PWs)   bands (ev):

   -69.7594 -69.1603 -69.1598 -36.5103 -36.5070 -36.5064 -35.9138 -35.9126
   -35.9114 -35.9094 -35.9077 -35.9071 -14.7319 -14.7276 -14.7261 -14.7223
   -14.7152 -14.7136 -14.6956 -14.6946 -14.6910 -14.6855  -3.4398  -2.9201
     3.2910   3.6499   4.1567   5.4048   6.1166   6.8166   7.9447   9.0787
     9.8078  10.3431  11.4078  12.1034  12.9345  13.0668  13.9122  14.1385

          k =-0.3600-0.2078 0.0000 (  4888 PWs)   bands (ev):

   -69.7594 -69.1602 -69.1598 -36.5103 -36.5070 -36.5064 -35.9138 -35.9126
   -35.9114 -35.9094 -35.9076 -35.9071 -14.7320 -14.7276 -14.7261 -14.7222
   -14.7152 -14.7135 -14.6954 -14.6945 -14.6911 -14.6854  -3.4173  -2.9183
     3.2388   3.6948   4.1079   5.3832   6.0430   6.8013   7.9114   9.0677
     9.7830  10.3239  11.4638  12.1346  13.0721  13.1891  13.9043  14.1205

          k =-0.3700-0.2136 0.0000 (  4882 PWs)   bands (ev):

   -69.7594 -69.1602 -69.1598 -36.5103 -36.5068 -36.5060 -35.9138 -35.9122
   -35.9113 -35.9091 -35.9076 -35.9070 -14.7321 -14.7276 -14.7261 -14.7221
   -14.7151 -14.7134 -14.6953 -14.6943 -14.6912 -14.6853  -3.3952  -2.9171
     3.1881   3.7418   4.0632   5.3631   5.9697   6.7869   7.8806   9.0571
     9.7599  10.3060  11.5215  12.1645  13.2107  13.3131  13.8453  14.1239

          k =-0.3800-0.2194 0.0000 (  4870 PWs)   bands (ev):

   -69.7593 -69.1602 -69.1598 -36.5098 -36.5068 -36.5056 -35.9137 -35.9118
   -35.9107 -35.9091 -35.9069 -35.9066 -14.7322 -14.7276 -14.7261 -14.7220
   -14.7151 -14.7133 -14.6951 -14.6942 -14.6913 -14.6852  -3.3736  -2.9166
     3.1398   3.7889   4.0234   5.3444   5.8972   6.7733   7.8527   9.0468
     9.7384  10.2893  11.5808  12.1936  13.3478  13.4384  13.7697  14.1197

          k =-0.3900-0.2252 0.0000 (  4866 PWs)   bands (ev):

   -69.7593 -69.1601 -69.1598 -36.5098 -36.5066 -36.5054 -35.9137 -35.9117
   -35.9108 -35.9087 -35.9068 -35.9064 -14.7323 -14.7276 -14.7261 -14.7219
   -14.7150 -14.7132 -14.6950 -14.6941 -14.6915 -14.6851  -3.3527  -2.9166
     3.0947   3.8314   3.9917   5.3270   5.8255   6.7606   7.8261   9.0369
     9.7186  10.2741  11.6410  12.2217  13.4790  13.5649  13.6901  14.1080

          k =-0.4000-0.2309 0.0000 (  4862 PWs)   bands (ev):

   -69.7593 -69.1601 -69.1598 -36.5099 -36.5065 -36.5050 -35.9136 -35.9115
   -35.9107 -35.9087 -35.9069 -35.9062 -14.7323 -14.7276 -14.7261 -14.7218
   -14.7150 -14.7132 -14.6949 -14.6940 -14.6916 -14.6850  -3.3326  -2.9173
     3.0528   3.8601   3.9772   5.3111   5.7554   6.7489   7.8024   9.0275
     9.7003  10.2599  11.7016  12.2486  13.5959  13.6108  13.6922  14.1020

          k =-0.4100-0.2367 0.0000 (  4870 PWs)   bands (ev):

   -69.7593 -69.1601 -69.1598 -36.5100 -36.5067 -36.5055 -35.9137 -35.9117
   -35.9112 -35.9090 -35.9071 -35.9063 -14.7324 -14.7276 -14.7261 -14.7217
   -14.7150 -14.7131 -14.6948 -14.6940 -14.6917 -14.6850  -3.3135  -2.9185
     3.0145   3.8611   3.9929   5.2966   5.6871   6.7381   7.7803   9.0186
     9.6836  10.2469  11.7627  12.2734  13.5329  13.6840  13.8200  14.1207

          k =-0.4200-0.2425 0.0000 (  4874 PWs)   bands (ev):

   -69.7593 -69.1601 -69.1598 -36.5102 -36.5067 -36.5057 -35.9135 -35.9119
   -35.9114 -35.9090 -35.9073 -35.9065 -14.7325 -14.7276 -14.7261 -14.7216
   -14.7149 -14.7130 -14.6947 -14.6939 -14.6918 -14.6849  -3.2955  -2.9202
     2.9798   3.8437   4.0294   5.2837   5.6215   6.7284   7.7610   9.0105
     9.6686  10.2353  11.8241  12.2958  13.4589  13.7278  13.9481  14.1823

          k =-0.4300-0.2483 0.0000 (  4876 PWs)   bands (ev):

   -69.7593 -69.1601 -69.1598 -36.5102 -36.5067 -36.5058 -35.9135 -35.9120
   -35.9116 -35.9090 -35.9073 -35.9065 -14.7326 -14.7276 -14.7261 -14.7216
   -14.7149 -14.7130 -14.6945 -14.6938 -14.6920 -14.6849  -3.2789  -2.9223
     2.9492   3.8221   4.0720   5.2723   5.5593   6.7198   7.7439   9.0033
     9.6555  10.2250  11.8854  12.3150  13.3897  13.7322  14.0760  14.2841

          k =-0.4400-0.2540 0.0000 (  4876 PWs)   bands (ev):

   -69.7593 -69.1601 -69.1598 -36.5103 -36.5067 -36.5058 -35.9136 -35.9121
   -35.9116 -35.9090 -35.9074 -35.9064 -14.7327 -14.7276 -14.7261 -14.7215
   -14.7149 -14.7129 -14.6944 -14.6938 -14.6921 -14.6848  -3.2637  -2.9246
     2.9226   3.8013   4.1150   5.2623   5.5012   6.7122   7.7291   8.9970
     9.6442  10.2161  11.9464  12.3300  13.3261  13.7150  14.2033  14.4094

          k =-0.4500-0.2598 0.0000 (  4868 PWs)   bands (ev):

   -69.7593 -69.1601 -69.1598 -36.5101 -36.5064 -36.5056 -35.9132 -35.9120
   -35.9113 -35.9088 -35.9070 -35.9064 -14.7327 -14.7276 -14.7261 -14.7214
   -14.7149 -14.7129 -14.6943 -14.6937 -14.6922 -14.6848  -3.2503  -2.9270
     2.9001   3.7828   4.1560   5.2540   5.4487   6.7058   7.7170   8.9918
     9.6346  10.2087  12.0063  12.3396  13.2696  13.6898  14.3294  14.5456

          k =-0.4600-0.2656 0.0000 (  4870 PWs)   bands (ev):

   -69.7593 -69.1601 -69.1598 -36.5101 -36.5064 -36.5058 -35.9132 -35.9122
   -35.9114 -35.9088 -35.9070 -35.9065 -14.7327 -14.7276 -14.7261 -14.7214
   -14.7149 -14.7128 -14.6942 -14.6937 -14.6923 -14.6847  -3.2389  -2.9294
     2.8815   3.7671   4.1928   5.2471   5.4024   6.7006   7.7068   8.9872
     9.6267  10.2025  12.0642  12.3418  13.2212  13.6634  14.4536  14.6851

          k =-0.4700-0.2714 0.0000 (  4870 PWs)   bands (ev):

   -69.7593 -69.1601 -69.1598 -36.5103 -36.5063 -36.5057 -35.9130 -35.9122
   -35.9114 -35.9089 -35.9070 -35.9067 -14.7328 -14.7276 -14.7261 -14.7214
   -14.7149 -14.7128 -14.6942 -14.6936 -14.6923 -14.6847  -3.2297  -2.9315
     2.8670   3.7548   4.2237   5.2418   5.3643   6.6964   7.6993   8.9835
     9.6205  10.1977  12.1194  12.3355  13.1820  13.6398  14.5747  14.8235

          k =-0.4800-0.2771 0.0000 (  4872 PWs)   bands (ev):

[...]
     2.6649   3.0536   5.1043   5.5772   6.0130   6.2371   7.9456   8.5662
     9.2821   9.7404  11.3795  11.9832  13.3667  13.5989  14.8369  14.9167

          k =-0.5400-0.2194-0.3164 (  4894 PWs)   bands (ev):

   -69.7594 -69.1601 -69.1599 -36.5115 -36.5069 -36.5062 -35.9138 -35.9126
   -35.9126 -35.9092 -35.9080 -35.9074 -14.7317 -14.7277 -14.7259 -14.7230
   -14.7154 -14.7117 -14.6939 -14.6929 -14.6924 -14.6856  -3.0987  -3.0291
     2.6717   3.0582   5.0526   5.5338   6.0389   6.2529   7.9770   8.5784
     9.3248   9.7566  11.3195  11.9186  13.4421  13.6692  14.7724  14.8556

          k =-0.5433-0.2136-0.3164 (  4890 PWs)   bands (ev):

   -69.7594 -69.1601 -69.1599 -36.5112 -36.5069 -36.5062 -35.9137 -35.9126
   -35.9124 -35.9092 -35.9078 -35.9072 -14.7317 -14.7277 -14.7259 -14.7230
   -14.7153 -14.7117 -14.6939 -14.6929 -14.6923 -14.6856  -3.0970  -3.0281
     2.6794   3.0631   5.0007   5.4897   6.0636   6.2680   8.0100   8.5906
     9.3716   9.7743  11.2593  11.8552  13.5192  13.7377  14.7073  14.7935

          k =-0.5466-0.2078-0.3164 (  4886 PWs)   bands (ev):

   -69.7594 -69.1601 -69.1599 -36.5111 -36.5068 -36.5060 -35.9137 -35.9125
   -35.9124 -35.9091 -35.9075 -35.9071 -14.7317 -14.7276 -14.7260 -14.7231
   -14.7153 -14.7117 -14.6940 -14.6928 -14.6923 -14.6857  -3.0952  -3.0270
     2.6874   3.0684   4.9487   5.4452   6.0871   6.2823   8.0448   8.6027
     9.4220   9.7934  11.1989  11.7931  13.5974  13.8033  14.6419  14.7307

          k =-0.5500-0.2021-0.3164 (  4882 PWs)   bands (ev):

   -69.7594 -69.1601 -69.1599 -36.5111 -36.5065 -36.5059 -35.9135 -35.9124
   -35.9123 -35.9088 -35.9075 -35.9071 -14.7316 -14.7276 -14.7260 -14.7231
   -14.7152 -14.7117 -14.6940 -14.6928 -14.6922 -14.6857  -3.0933  -3.0258
     2.6962   3.0740   4.8966   5.4003   6.1095   6.2960   8.0809   8.6146
     9.4757   9.8138  11.1387  11.7325  13.6762  13.8654  14.5765  14.6674

          k =-0.5533-0.1963-0.3164 (  4882 PWs)   bands (ev):

   -69.7594 -69.1601 -69.1599 -36.5111 -36.5065 -36.5059 -35.9135 -35.9124
   -35.9123 -35.9088 -35.9075 -35.9071 -14.7316 -14.7276 -14.7260 -14.7231
   -14.7152 -14.7117 -14.6941 -14.6927 -14.6922 -14.6858  -3.0913  -3.0246
     2.7054   3.0799   4.8445   5.3550   6.1309   6.3092   8.1174   8.6263
     9.5326   9.8355  11.0788  11.6735  13.7553  13.9222  14.5112  14.6040

          k =-0.5566-0.1905-0.3164 (  4878 PWs)   bands (ev):

   -69.7594 -69.1601 -69.1599 -36.5108 -36.5064 -36.5059 -35.9134 -35.9123
   -35.9122 -35.9087 -35.9074 -35.9069 -14.7315 -14.7276 -14.7261 -14.7231
   -14.7151 -14.7118 -14.6941 -14.6927 -14.6921 -14.6858  -3.0891  -3.0233
     2.7153   3.0861   4.7925   5.3097   6.1513   6.3218   8.1551   8.6378
     9.5930   9.8586  11.0194  11.6164  13.8338  13.9724  14.4468  14.5410

          k =-0.5600-0.1848-0.3164 (  4882 PWs)   bands (ev):

   -69.7594 -69.1601 -69.1599 -36.5108 -36.5067 -36.5060 -35.9134 -35.9125
   -35.9122 -35.9090 -35.9074 -35.9069 -14.7315 -14.7276 -14.7261 -14.7231
   -14.7151 -14.7118 -14.6942 -14.6926 -14.6920 -14.6859  -3.0869  -3.0220
     2.7254   3.0926   4.7407   5.2642   6.1707   6.3340   8.1929   8.6490
     9.6561   9.8825  10.9604  11.5606  13.9102  14.0136  14.3838  14.4791

          k =-0.5633-0.1790-0.3164 (  4878 PWs)   bands (ev):

   -69.7594 -69.1601 -69.1599 -36.5105 -36.5065 -36.5061 -35.9132 -35.9124
   -35.9121 -35.9089 -35.9073 -35.9068 -14.7314 -14.7275 -14.7261 -14.7231
   -14.7150 -14.7118 -14.6943 -14.6925 -14.6920 -14.6859  -3.0845  -3.0206
     2.7365   3.0993   4.6888   5.2187   6.1894   6.3458   8.2313   8.6603
     9.7226   9.9076  10.9022  11.5078  13.9817  14.0443  14.3239  14.4203

          k =-0.5666-0.1732-0.3164 (  4874 PWs)   bands (ev):

   -69.7593 -69.1601 -69.1599 -36.5105 -36.5063 -36.5060 -35.9130 -35.9124
   -35.9120 -35.9089 -35.9071 -35.9068 -14.7313 -14.7275 -14.7262 -14.7231
   -14.7150 -14.7118 -14.6943 -14.6925 -14.6919 -14.6860  -3.0821  -3.0192
     2.7483   3.1064   4.6374   5.1735   6.2073   6.3571   8.2695   8.6714
     9.7915   9.9335  10.8448  11.4576  14.0392  14.0625  14.2701  14.3701

          k =-0.5700-0.1674-0.3164 (  4878 PWs)   bands (ev):

   -69.7594 -69.1601 -69.1599 -36.5105 -36.5064 -36.5062 -35.9131 -35.9124
   -35.9122 -35.9090 -35.9073 -35.9068 -14.7313 -14.7275 -14.7262 -14.7231
   -14.7149 -14.7119 -14.6944 -14.6924 -14.6919 -14.6860  -3.0796  -3.0178
     2.7604   3.1136   4.5862   5.1284   6.2245   6.3680   8.3074   8.6820
     9.8625   9.9597  10.7881  11.4103  14.0638  14.0672  14.2240  14.3456

          k =-0.5733-0.1617-0.3164 (  4878 PWs)   bands (ev):

   -69.7594 -69.1601 -69.1599 -36.5105 -36.5064 -36.5062 -35.9130 -35.9124
   -35.9122 -35.9090 -35.9073 -35.9068 -14.7312 -14.7275 -14.7263 -14.7231
   -14.7148 -14.7119 -14.6944 -14.6924 -14.6918 -14.6861  -3.0770  -3.0164
     2.7730   3.1211   4.5355   5.0836   6.2410   6.3787   8.3451   8.6927
     9.9360   9.9862  10.7325  11.3664  14.0434  14.0593  14.1758  14.3692

          k =-0.5766-0.1559-0.3164 (  4870 PWs)   bands (ev):

   -69.7593 -69.1601 -69.1599 -36.5105 -36.5062 -36.5057 -35.9125 -35.9123
   -35.9122 -35.9084 -35.9072 -35.9067 -14.7311 -14.7274 -14.7263 -14.7231
   -14.7147 -14.7119 -14.6945 -14.6923 -14.6918 -14.6862  -3.0743  -3.0150
     2.7865   3.1289   4.4853   5.0394   6.2570   6.3890   8.3834   8.7032
    10.0122  10.0124  10.6779  11.3263  13.9962  14.0405  14.1201  14.4284

          k =-0.5800-0.1501-0.3164 (  4874 PWs)   bands (ev):

   -69.7593 -69.1601 -69.1599 -36.5105 -36.5063 -36.5059 -35.9128 -35.9124
   -35.9123 -35.9084 -35.9073 -35.9067 -14.7311 -14.7274 -14.7264 -14.7231
   -14.7147 -14.7119 -14.6945 -14.6922 -14.6917 -14.6863  -3.0716  -3.0135
     2.8002   3.1367   4.4355   4.9954   6.2723   6.3990   8.4201   8.7135
    10.0377  10.0899  10.6244  11.2904  13.9388  14.0123  14.0600  14.4127

          k =-0.5833-0.1443-0.3164 (  4882 PWs)   bands (ev):

   -69.7594 -69.1601 -69.1599 -36.5108 -36.5064 -36.5062 -35.9132 -35.9127
   -35.9124 -35.9086 -35.9076 -35.9068 -14.7310 -14.7274 -14.7265 -14.7232
   -14.7146 -14.7120 -14.6946 -14.6921 -14.6917 -14.6863  -3.0688  -3.0121
     2.8145   3.1445   4.3861   4.9519   6.2870   6.4088   8.4558   8.7234
    10.0615  10.1693  10.5720  11.2597  13.8774  13.9774  13.9983  14.3491

          k =-0.5866-0.1386-0.3164 (  4886 PWs)   bands (ev):

   -69.7594 -69.1601 -69.1599 -36.5108 -36.5065 -36.5064 -35.9137 -35.9127
   -35.9124 -35.9087 -35.9076 -35.9068 -14.7310 -14.7274 -14.7265 -14.7232
   -14.7146 -14.7120 -14.6946 -14.6921 -14.6917 -14.6864  -3.0660  -3.0107
     2.8294   3.1525   4.3373   4.9093   6.3014   6.4182   8.4907   8.7333
    10.0836  10.2508  10.5210  11.2348  13.8143  13.9360  13.9373  14.2856

          k =-0.5900-0.1328-0.3164 (  4884 PWs)   bands (ev):

   -69.7594 -69.1601 -69.1599 -36.5108 -36.5066 -36.5062 -35.9137 -35.9125
   -35.9121 -35.9088 -35.9076 -35.9068 -14.7309 -14.7274 -14.7266 -14.7232
   -14.7145 -14.7120 -14.6947 -14.6920 -14.6916 -14.6865  -3.0631  -3.0092
     2.8450   3.1609   4.2892   4.8675   6.3154   6.4274   8.5247   8.7433
    10.1031  10.3338  10.4718  11.2166  13.7506  13.8737  13.8933  14.2222

          k =-0.5933-0.1270-0.3164 (  4884 PWs)   bands (ev):

   -69.7594 -69.1600 -69.1599 -36.5108 -36.5066 -36.5062 -35.9137 -35.9126
   -35.9121 -35.9088 -35.9076 -35.9068 -14.7308 -14.7273 -14.7266 -14.7232
   -14.7144 -14.7121 -14.6947 -14.6919 -14.6916 -14.6866  -3.0601  -3.0079
     2.8610   3.1692   4.2420   4.8267   6.3289   6.4364   8.5577   8.7530
    10.1192  10.4094  10.4329  11.2055  13.6866  13.8114  13.8465  14.1592

          k =-0.5966-0.1212-0.3164 (  4884 PWs)   bands (ev):

   -69.7594 -69.1600 -69.1599 -36.5108 -36.5066 -36.5062 -35.9137 -35.9126
   -35.9121 -35.9088 -35.9076 -35.9067 -14.7307 -14.7273 -14.7267 -14.7232
   -14.7144 -14.7121 -14.6948 -14.6918 -14.6915 -14.6866  -3.0572  -3.0065
     2.8775   3.1774   4.1955   4.7867   6.3420   6.4450   8.5894   8.7626
    10.1313  10.3746  10.5074  11.2022  13.6226  13.7493  13.7976  14.0964

          k =-0.6000-0.1155-0.3164 (  4868 PWs)   bands (ev):

   -69.7593 -69.1600 -69.1599 -36.5106 -36.5059 -36.5056 -35.9131 -35.9122
   -35.9118 -35.9084 -35.9069 -35.9065 -14.7307 -14.7273 -14.7267 -14.7232
   -14.7143 -14.7121 -14.6948 -14.6917 -14.6915 -14.6867  -3.0542  -3.0051
     2.8953   3.1860   4.1499   4.7479   6.3548   6.4534   8.6213   8.7723
    10.1393  10.3300  10.5954  11.2072  13.5587  13.6879  13.7473  14.0340

          k =-0.6033-0.1097-0.3164 (  4876 PWs)   bands (ev):

   -69.7593 -69.1600 -69.1599 -36.5107 -36.5061 -36.5060 -35.9133 -35.9123
   -35.9120 -35.9087 -35.9071 -35.9067 -14.7306 -14.7273 -14.7268 -14.7232
   -14.7142 -14.7122 -14.6948 -14.6917 -14.6914 -14.6868  -3.0512  -3.0039
     2.9126   3.1939   4.1047   4.7100   6.3671   6.4614   8.6503   8.7814
    10.1421  10.2865  10.6845  11.2203  13.4947  13.6267  13.6957  13.9713

          k =-0.6066-0.1039-0.3164 (  4880 PWs)   bands (ev):

   -69.7594 -69.1600 -69.1599 -36.5108 -36.5062 -36.5062 -35.9134 -35.9124
   -35.9122 -35.9088 -35.9073 -35.9068 -14.7305 -14.7273 -14.7269 -14.7232
   -14.7141 -14.7122 -14.6949 -14.6916 -14.6914 -14.6869  -3.0481  -3.0027
     2.9306   3.2020   4.0605   4.6734   6.3791   6.4691   8.6779   8.7903
    10.1406  10.2447  10.7749  11.2420  13.4312  13.5660  13.6436  13.9090

          k =-0.6100-0.0981-0.3164 (  4888 PWs)   bands (ev):

   -69.7594 -69.1600 -69.1600 -36.5108 -36.5065 -36.5065 -35.9135 -35.9128
   -35.9125 -35.9092 -35.9074 -35.9068 -14.7305 -14.7273 -14.7269 -14.7232
   -14.7141 -14.7123 -14.6949 -14.6915 -14.6914 -14.6870  -3.0451  -3.0016
     2.9489   3.2096   4.0171   4.6381   6.3907   6.4765   8.7039   8.7989
    10.1346  10.2046  10.8665  11.2717  13.3679  13.5059  13.5909  13.8468

          k =-0.6133-0.0924-0.3164 (  4890 PWs)   bands (ev):

   -69.7594 -69.1601 -69.1600 -36.5108 -36.5066 -36.5066 -35.9133 -35.9129
   -35.9126 -35.9094 -35.9076 -35.9069 -14.7304 -14.7273 -14.7270 -14.7232
   -14.7140 -14.7123 -14.6949 -14.6914 -14.6913 -14.6871  -3.0421  -3.0006
     2.9680   3.2172   3.9745   4.6043   6.4020   6.4835   8.7285   8.8074
    10.1255  10.1664  10.9595  11.3092  13.3049  13.4465  13.5385  13.7850

          k =-0.6166-0.0866-0.3164 (  4892 PWs)   bands (ev):

   -69.7594 -69.1601 -69.1600 -36.5109 -36.5067 -36.5066 -35.9133 -35.9129
   -35.9126 -35.9095 -35.9077 -35.9070 -14.7303 -14.7273 -14.7270 -14.7233
   -14.7139 -14.7123 -14.6950 -14.6914 -14.6913 -14.6871  -3.0391  -2.9996
     2.9875   3.2244   3.9332   4.5720   6.4129   6.4902   8.7516   8.8155
    10.1133  10.1302  11.0532  11.3536  13.2423  13.3878  13.4860  13.7238

          k =-0.6200-0.0808-0.3164 (  4890 PWs)   bands (ev):

   -69.7594 -69.1600 -69.1600 -36.5108 -36.5067 -36.5066 -35.9133 -35.9129
   -35.9126 -35.9095 -35.9075 -35.9069 -14.7303 -14.7273 -14.7271 -14.7233
   -14.7138 -14.7124 -14.6950 -14.6913 -14.6913 -14.6872  -3.0362  -2.9987
     3.0075   3.2314   3.8931   4.5412   6.4235   6.4964   8.7732   8.8233
    10.0961  10.0989  11.1478  11.4043  13.1801  13.3300  13.4339  13.6631

          k =-0.6233-0.0751-0.3164 (  4894 PWs)   bands (ev):

   -69.7594 -69.1601 -69.1600 -36.5108 -36.5069 -36.5067 -35.9133 -35.9130
   -35.9129 -35.9096 -35.9075 -35.9069 -14.7302 -14.7273 -14.7271 -14.7233
   -14.7138 -14.7124 -14.6950 -14.6912 -14.6912 -14.6873  -3.0332  -2.9980
     3.0275   3.2379   3.8541   4.5121   6.4337   6.5022   8.7930   8.8306
    10.0641  10.0824  11.2431  11.4604  13.1184  13.2728  13.3820  13.6026

          k =-0.6266-0.0693-0.3164 (  4898 PWs)   bands (ev):

   -69.7594 -69.1601 -69.1600 -36.5107 -36.5072 -36.5069 -35.9136 -35.9130
   -35.9129 -35.9099 -35.9075 -35.9070 -14.7302 -14.7273 -14.7272 -14.7233
   -14.7137 -14.7125 -14.6951 -14.6912 -14.6912 -14.6874  -3.0303  -2.9974
     3.0480   3.2439   3.8161   4.4847   6.4435   6.5076   8.8115   8.8374
    10.0343  10.0648  11.3393  11.5213  13.0569  13.2168  13.3305  13.5422

          k =-0.6299-0.0635-0.3164 (  4902 PWs)   bands (ev):

   -69.7594 -69.1601 -69.1600 -36.5110 -36.5072 -36.5069 -35.9136 -35.9131
   -35.9130 -35.9100 -35.9075 -35.9074 -14.7301 -14.7273 -14.7272 -14.7233
   -14.7137 -14.7125 -14.6951 -14.6911 -14.6911 -14.6874  -3.0275  -2.9969
     3.0688   3.2493   3.7792   4.4593   6.4529   6.5124   8.8277   8.8438
    10.0068  10.0473  11.4357  11.5865  12.9960  13.1617  13.2799  13.4823

          k =-0.6333-0.0577-0.3164 (  4900 PWs)   bands (ev):

   -69.7594 -69.1601 -69.1600 -36.5110 -36.5072 -36.5068 -35.9136 -35.9130
   -35.9129 -35.9099 -35.9075 -35.9074 -14.7300 -14.7273 -14.7273 -14.7233
   -14.7136 -14.7125 -14.6951 -14.6911 -14.6910 -14.6875  -3.0247  -2.9965
     3.0900   3.2542   3.7440   4.4359   6.4619   6.5167   8.8424   8.8500
     9.9816  10.0300  11.5324  11.6554  12.9357  13.1080  13.2302  13.4232

          k =-0.6366-0.0520-0.3164 (  4898 PWs)   bands (ev):

   -69.7594 -69.1601 -69.1600 -36.5109 -36.5071 -36.5068 -35.9135 -35.9129
   -35.9128 -35.9099 -35.9075 -35.9074 -14.7300 -14.7273 -14.7273 -14.7233
   -14.7135 -14.7126 -14.6951 -14.6911 -14.6910 -14.6876  -3.0220  -2.9963
     3.1113   3.2584   3.7103   4.4145   6.4705   6.5205   8.8553   8.8556
     9.9589  10.0132  11.6291  11.7273  12.8759  13.0557  13.1815  13.3645

          k =-0.6399-0.0462-0.3164 (  4906 PWs)   bands (ev):

   -69.7594 -69.1601 -69.1600 -36.5110 -36.5074 -36.5071 -35.9138 -35.9132
   -35.9132 -35.9102 -35.9076 -35.9074 -14.7299 -14.7274 -14.7273 -14.7233
   -14.7135 -14.7126 -14.6952 -14.6911 -14.6909 -14.6877  -3.0194  -2.9962
     3.1324   3.2616   3.6779   4.3951   6.4785   6.5236   8.8605   8.8662
     9.9384   9.9971  11.7253  11.8017  12.8165  13.0052  13.1340  13.3059

          k =-0.6433-0.0404-0.3164 (  4902 PWs)   bands (ev):

   -69.7594 -69.1601 -69.1600 -36.5110 -36.5071 -36.5071 -35.9134 -35.9132
   -35.9132 -35.9101 -35.9075 -35.9074 -14.7299 -14.7274 -14.7273 -14.7233
   -14.7134 -14.7127 -14.6952 -14.6910 -14.6909 -14.6877  -3.0168  -2.9963
     3.1537   3.2643   3.6476   4.3780   6.4862   6.5262   8.8654   8.8754
     9.9206   9.9827  11.8207  11.8781  12.7578  12.9572  13.0881  13.2481

          k =-0.6466-0.0346-0.3164 (  4902 PWs)   bands (ev):

   -69.7594 -69.1601 -69.1600 -36.5110 -36.5073 -36.5069 -35.9135 -35.9132
   -35.9131 -35.9102 -35.9074 -35.9074 -14.7299 -14.7274 -14.7273 -14.7233
   -14.7133 -14.7127 -14.6952 -14.6910 -14.6908 -14.6878  -3.0144  -2.9965
     3.1744   3.2661   3.6194   4.3631   6.4933   6.5281   8.8694   8.8829
     9.9053   9.9695  11.9143  11.9557  12.6997  12.9121  13.0441  13.1907

          k =-0.6499-0.0289-0.3164 (  4910 PWs)   bands (ev):

   -69.7594 -69.1601 -69.1600 -36.5112 -36.5076 -36.5070 -35.9139 -35.9134
   -35.9133 -35.9103 -35.9077 -35.9076 -14.7298 -14.7274 -14.7273 -14.7233
   -14.7133 -14.7128 -14.6952 -14.6910 -14.6908 -14.6878  -3.0121  -2.9970
     3.1941   3.2670   3.5932   4.3504   6.4998   6.5292   8.8732   8.8880
     9.8923   9.9580  12.0046  12.0339  12.6421  12.8713  13.0027  13.1336

          k =-0.6533-0.0231-0.3164 (  4910 PWs)   bands (ev):

   -69.7594 -69.1601 -69.1600 -36.5112 -36.5076 -36.5070 -35.9138 -35.9134
   -35.9133 -35.9103 -35.9077 -35.9076 -14.7298 -14.7274 -14.7273 -14.7233
   -14.7132 -14.7128 -14.6952 -14.6909 -14.6908 -14.6879  -3.0098  -2.9976
     3.2126   3.2672   3.5704   4.3401   6.5059   6.5297   8.8768   8.8916
     9.8819   9.9487  12.0898  12.1117  12.5856  12.8370  12.9645  13.0773

          k =-0.6566-0.0173-0.3164 (  4918 PWs)   bands (ev):

   -69.7594 -69.1601 -69.1600 -36.5113 -36.5077 -36.5075 -35.9140 -35.9136
   -35.9136 -35.9107 -35.9079 -35.9077 -14.7298 -14.7274 -14.7274 -14.7233
   -14.7132 -14.7129 -14.6952 -14.6909 -14.6908 -14.6879  -3.0077  -2.9985
     3.2291   3.2664   3.5507   4.3321   6.5113   6.5293   8.8801   8.8933
     9.8739   9.9411  12.1663  12.1874  12.5299  12.8122  12.9307  13.0209

          k =-0.6599-0.0115-0.3164 (  4918 PWs)   bands (ev):

   -69.7594 -69.1601 -69.1600 -36.5113 -36.5077 -36.5076 -35.9139 -35.9137
   -35.9136 -35.9107 -35.9079 -35.9077 -14.7298 -14.7274 -14.7274 -14.7233
   -14.7131 -14.7129 -14.6952 -14.6909 -14.6908 -14.6879  -3.0058  -2.9995
     3.2430   3.2649   3.5358   4.3264   6.5161   6.5283   8.8833   8.8935
     9.8683   9.9360  12.2289  12.2591  12.4755  12.8021  12.9032  12.9666

          k =-0.6633-0.0058-0.3164 (  4930 PWs)   bands (ev):

   -69.7595 -69.1601 -69.1601 -36.5118 -36.5080 -36.5078 -35.9141 -35.9140
   -35.9139 -35.9109 -35.9083 -35.9083 -14.7298 -14.7275 -14.7274 -14.7233
   -14.7131 -14.7130 -14.6952 -14.6909 -14.6908 -14.6879  -3.0039  -3.0008
     3.2531   3.2621   3.5259   4.3229   6.5201   6.5263   8.8861   8.8921
     9.8649   9.9324  12.2706  12.3229  12.4232  12.8123  12.8817  12.9163

          k =-0.6666 0.0000-0.3164 (  4938 PWs)   bands (ev):

   -69.7595 -69.1601 -69.1601 -36.5123 -36.5080 -36.5080 -35.9143 -35.9143
   -35.9141 -35.9110 -35.9086 -35.9086 -14.7298 -14.7274 -14.7274 -14.7233
   -14.7131 -14.7131 -14.6953 -14.6909 -14.6909 -14.6879  -3.0023  -3.0023
     3.2588   3.2589   3.5225   4.3217   6.5235   6.5236   8.8891   8.8891
     9.8637   9.9309  12.2855  12.3745  12.3754  12.8467  12.8476  12.8941

     Writing all to output data dir ../out/m2.save/

     init_run     :      1.55s CPU      1.33s WALL (       1 calls)
     electrons    :     74.72s CPU     40.45s WALL (       1 calls)

     Called by init_run:
     wfcinit      :      0.00s CPU      0.00s WALL (       1 calls)
     wfcinit:atom :      0.05s CPU      0.05s WALL (      11 calls)
     wfcinit:wfcr :      1.82s CPU      0.92s WALL (      11 calls)
     potinit      :      0.43s CPU      0.27s WALL (       1 calls)
     hinit0       :      0.99s CPU      0.90s WALL (       1 calls)

     Called by electrons:
     c_bands      :     74.70s CPU     40.43s WALL (       1 calls)
     v_of_rho     :      0.36s CPU      0.20s WALL (       1 calls)
     v_h          :      0.03s CPU      0.01s WALL (       1 calls)
     v_xc         :      0.34s CPU      0.19s WALL (       1 calls)
     newd         :      0.08s CPU      0.11s WALL (       1 calls)

     Called by c_bands:
     init_us_2    :      0.03s CPU      0.03s WALL (      11 calls)
     init_us_2:cp :      0.03s CPU      0.03s WALL (      11 calls)
     cegterg      :     71.36s CPU     35.80s WALL (      39 calls)

     Called by sum_band:

     Called by *egterg:
     cdiaghg      :      2.09s CPU      1.04s WALL (     702 calls)
     cegterg:over :      5.83s CPU      2.89s WALL (     691 calls)
     cegterg:upda :      6.42s CPU      3.19s WALL (     691 calls)
     cegterg:last :      9.85s CPU      4.93s WALL (     326 calls)
     h_psi        :     42.86s CPU     21.55s WALL (     741 calls)
     s_psi        :      2.70s CPU      1.37s WALL (     741 calls)
     g_psi        :      0.72s CPU      0.39s WALL (     691 calls)

     Called by h_psi:
     h_psi:calbec :      2.93s CPU      1.44s WALL (     741 calls)
     vloc_psi     :     36.26s CPU     18.21s WALL (     741 calls)
     add_vuspsi   :      2.70s CPU      1.42s WALL (     741 calls)

     General routines
     calbec       :      2.92s CPU      1.44s WALL (     741 calls)
     fft          :      0.10s CPU      0.05s WALL (      13 calls)
     ffts         :      0.00s CPU      0.00s WALL (       1 calls)
     fftw         :     28.23s CPU     14.21s WALL (   26062 calls)
     interpolate  :      0.02s CPU      0.01s WALL (       1 calls)
     davcio       :      0.03s CPU      0.04s WALL (      22 calls)

     Parallel routines

     PWSCF        :   1m17.44s CPU   1m 5.31s WALL


   This run was terminated on:  16:19:56  27May2023            

=------------------------------------------------------------------------------=
   JOB DONE.
=------------------------------------------------------------------------------=
