
     Program DOS v.6.7MaX starts on  8Oct2023 at 20:43:29 

     This program is part of the open-source Quantum ESPRESSO suite
     for quantum simulation of materials; please cite
         "P. Giannozzi et al., J. Phys.:Condens. Matter 21 395502 (2009);
         "P. Giannozzi et al., J. Phys.:Condens. Matter 29 465901 (2017);
          URL http://www.quantum-espresso.org", 
     in publications or presentations arising from this work. More details at
     http://www.quantum-espresso.org/quote

     Parallel version (MPI), running on     4 processors

     MPI processes distributed on     1 nodes
     R & G space division:  proc/nbgrp/npool/nimage =       4

     Reading xml data from directory:

     ../out/TiS.save/

     IMPORTANT: XC functional enforced from input :
     Exchange-correlation= PBE
                           (   1   4   3   4   0   0   0)
     Any further DFT definition will be discarded
     Please, verify this is what you really want


     Parallelization info
     --------------------
     sticks:   dense  smooth     PW     G-vecs:    dense   smooth      PW
     Min         186      94     30                 8270     2920     518
     Max         187      96     31                 8281     2921     523
     Sum         745     379    121                33091    11681    2079


     Check: negative core charge=   -0.000005

     negative rho (up, down):  1.564E-03 0.000E+00

     Gaussian broadening (read from file): ngauss,degauss=  -1    0.014700


     DOS          :      6.83s CPU      7.00s WALL


   This run was terminated on:  20:43:36   8Oct2023            

=------------------------------------------------------------------------------=
   JOB DONE.
=------------------------------------------------------------------------------=
