
     Program PWSCF v.6.7MaX starts on  8Oct2023 at 20:12:45 

     This program is part of the open-source Quantum ESPRESSO suite
     for quantum simulation of materials; please cite
         "P. Giannozzi et al., J. Phys.:Condens. Matter 21 395502 (2009);
         "P. Giannozzi et al., J. Phys.:Condens. Matter 29 465901 (2017);
          URL http://www.quantum-espresso.org", 
     in publications or presentations arising from this work. More details at
     http://www.quantum-espresso.org/quote

     Parallel version (MPI), running on     4 processors

     MPI processes distributed on     1 nodes
     R & G space division:  proc/nbgrp/npool/nimage =       4
     Waiting for input...
     Reading input from standard input

     Current dimensions of program PWSCF are:
     Max number of different atomic species (ntypx) = 10
     Max number of k-points (npk) =  40000
     Max angular momentum in pseudopotentials (lmaxx) =  3

     Subspace diagonalization in iterative solution of the eigenvalue problem:
     one sub-group per band group will be used
     scalapack distributed-memory algorithm (size of sub-group:  2*  2 procs)

     Message from routine setup:
     using ibrav=0 with symmetry is DISCOURAGED, use correct ibrav instead

     Parallelization info
     --------------------
     sticks:   dense  smooth     PW     G-vecs:    dense   smooth      PW
     Min         186      94     30                 8270     2920     518
     Max         187      96     31                 8281     2921     523
     Sum         745     379    121                33091    11681    2079



     bravais-lattice index     =            0
     lattice parameter (alat)  =       6.2293  a.u.
     unit-cell volume          =     417.9542 (a.u.)^3
     number of atoms/cell      =            4
     number of atomic types    =            2
     number of electrons       =        36.00
     number of Kohn-Sham states=           40
     kinetic-energy cutoff     =      35.0000  Ry
     charge density cutoff     =     280.0000  Ry
     scf convergence threshold =      8.0E-10
     mixing beta               =       0.4000
     number of iterations used =            8  plain     mixing
     Exchange-correlation=  SLA  PW   PBX  PBC
                           (   1   4   3   4   0   0   0)

     celldm(1)=   6.229263  celldm(2)=   0.000000  celldm(3)=   0.000000
     celldm(4)=   0.000000  celldm(5)=   0.000000  celldm(6)=   0.000000

     crystal axes: (cart. coord. in units of alat)
               a(1) = (   1.000000   0.000000   0.000000 )  
               a(2) = (  -0.500000   0.866025   0.000000 )  
               a(3) = (   0.000000   0.000000   1.996586 )  

     reciprocal axes: (cart. coord. in units 2 pi/alat)
               b(1) = (  1.000000  0.577350 -0.000000 )  
               b(2) = (  0.000000  1.154701  0.000000 )  
               b(3) = (  0.000000 -0.000000  0.500855 )  


     PseudoPot. # 1 for S  read from file:
     ../pseudo/s_pbe_v1.4.uspp.F.UPF
     MD5 check sum: 88d86576ff6df21479756cfb9bdac1df
     Pseudo is Ultrasoft + core correction, Zval =  6.0
     Generated by new atomic code, or converted to UPF format
     Using radial grid of  907 points,  6 beta functions with: 
                l(1) =   0
                l(2) =   0
                l(3) =   1
                l(4) =   1
                l(5) =   2
                l(6) =   2
     Q(r) pseudized with  8 coefficients,  rinner =    1.300   1.300   1.300
                                                       1.300   1.300

     PseudoPot. # 2 for Ti read from file:
     ../pseudo/ti_pbe_v1.4.uspp.F.UPF
     MD5 check sum: 88a00a6731bd790ddea75d31a80cb452
     Pseudo is Ultrasoft + core correction, Zval = 12.0
     Generated by new atomic code, or converted to UPF format
     Using radial grid of  851 points,  6 beta functions with: 
                l(1) =   0
                l(2) =   0
                l(3) =   1
                l(4) =   1
                l(5) =   2
                l(6) =   2
     Q(r) pseudized with  6 coefficients,  rinner =    1.000   1.000   1.000
                                                       1.000   1.000

     atomic species   valence    mass     pseudopotential
        S              6.00    32.06500     S ( 1.00)
        Ti            12.00    47.86700     Ti( 1.00)

      8 Sym. Ops., with inversion, found ( 4 have fractional translation)


                                    s                        frac. trans.

      isym =  1     identity                                     

 cryst.   s( 1) = (     1          0          0      )
                  (     0          1          0      )
                  (     0          0          1      )

 cart.    s( 1) = (  1.0000000  0.0000000  0.0000000 )
                  (  0.0000000  1.0000000  0.0000000 )
                  (  0.0000000  0.0000000  1.0000000 )


      isym =  2     180 deg rotation - cart. axis [0,0,1]        

 cryst.   s( 2) = (    -1          0          0      )    f =(  0.0000000 )
                  (     0         -1          0      )       (  0.0000000 )
                  (     0          0          1      )       ( -0.5000000 )

 cart.    s( 2) = ( -1.0000000  0.0000000  0.0000000 )    f =(  0.0000000 )
                  (  0.0000000 -1.0000000  0.0000000 )       (  0.0000000 )
                  (  0.0000000  0.0000000  1.0000000 )       ( -0.9982930 )


      isym =  3     180 deg rotation - cart. axis [0,1,0]        

 cryst.   s( 3) = (    -1          0          0      )    f =( -0.0000000 )
                  (     1          1          0      )       (  0.0000000 )
                  (     0          0         -1      )       (  0.5000000 )

 cart.    s( 3) = ( -1.0000000  0.0000000  0.0000000 )    f =( -0.0000000 )
                  (  0.0000000  1.0000000  0.0000000 )       (  0.0000000 )
                  (  0.0000000  0.0000000 -1.0000000 )       (  0.9982930 )


      isym =  4     180 deg rotation - cart. axis [1,0,0]        

 cryst.   s( 4) = (     1          0          0      )
                  (    -1         -1          0      )
                  (     0          0         -1      )

 cart.    s( 4) = (  1.0000000 -0.0000000  0.0000000 )
                  (  0.0000000 -1.0000000  0.0000000 )
                  (  0.0000000  0.0000000 -1.0000000 )


      isym =  5     inversion                                    

 cryst.   s( 5) = (    -1          0          0      )
                  (     0         -1          0      )
                  (     0          0         -1      )

 cart.    s( 5) = ( -1.0000000  0.0000000  0.0000000 )
                  (  0.0000000 -1.0000000  0.0000000 )
                  (  0.0000000  0.0000000 -1.0000000 )


      isym =  6     inv. 180 deg rotation - cart. axis [0,0,1]   

 cryst.   s( 6) = (     1          0          0      )    f =(  0.0000000 )
                  (     0          1          0      )       (  0.0000000 )
                  (     0          0         -1      )       (  0.5000000 )

 cart.    s( 6) = (  1.0000000  0.0000000  0.0000000 )    f =(  0.0000000 )
                  (  0.0000000  1.0000000  0.0000000 )       (  0.0000000 )
                  (  0.0000000  0.0000000 -1.0000000 )       (  0.9982930 )


      isym =  7     inv. 180 deg rotation - cart. axis [0,1,0]   

 cryst.   s( 7) = (     1          0          0      )    f =( -0.0000000 )
                  (    -1         -1          0      )       (  0.0000000 )
                  (     0          0          1      )       ( -0.5000000 )

 cart.    s( 7) = (  1.0000000 -0.0000000  0.0000000 )    f =( -0.0000000 )
                  (  0.0000000 -1.0000000  0.0000000 )       (  0.0000000 )
                  (  0.0000000  0.0000000  1.0000000 )       ( -0.9982930 )


      isym =  8     inv. 180 deg rotation - cart. axis [1,0,0]   

 cryst.   s( 8) = (    -1          0          0      )
                  (     1          1          0      )
                  (     0          0          1      )

 cart.    s( 8) = ( -1.0000000  0.0000000  0.0000000 )
                  (  0.0000000  1.0000000  0.0000000 )
                  (  0.0000000  0.0000000  1.0000000 )


   Cartesian axes

     site n.     atom                  positions (alat units)
         1           S   tau(   1) = (   0.5000000   0.2887168   0.4991465  )
         2           S   tau(   2) = (  -0.0000000   0.5773086   1.4974395  )
         3           Ti  tau(   3) = (   0.0000000   0.0000000   0.0000000  )
         4           Ti  tau(   4) = (   0.0000000   0.0000000   0.9982930  )

   Crystallographic axes

     site n.     atom                  positions (cryst. coord.)
         1           S   tau(   1) = (  0.6666907  0.3333814  0.2500000  )
         2           S   tau(   2) = (  0.3333093  0.6666186  0.7500000  )
         3           Ti  tau(   3) = (  0.0000000  0.0000000  0.0000000  )
         4           Ti  tau(   4) = (  0.0000000  0.0000000  0.5000000  )

     number of k points=   129  Marzari-Vanderbilt smearing, width (Ry)=  0.0147
                       cart. coord. in units 2pi/alat
        k(    1) = (   0.0000000   0.0000000   0.0000000), wk =   0.0027778
        k(    2) = (   0.0000000   0.0000000   0.1001710), wk =   0.0055556
        k(    3) = (   0.0000000   0.0000000   0.2003420), wk =   0.0055556
        k(    4) = (   0.0000000   0.0962250   0.0000000), wk =   0.0055556
        k(    5) = (   0.0000000   0.0962250   0.1001710), wk =   0.0111111
        k(    6) = (   0.0000000   0.0962250   0.2003420), wk =   0.0111111
        k(    7) = (   0.0000000   0.1924501   0.0000000), wk =   0.0055556
        k(    8) = (   0.0000000   0.1924501   0.1001710), wk =   0.0111111
        k(    9) = (   0.0000000   0.1924501   0.2003420), wk =   0.0111111
        k(   10) = (   0.0000000   0.2886751   0.0000000), wk =   0.0055556
        k(   11) = (   0.0000000   0.2886751   0.1001710), wk =   0.0111111
        k(   12) = (   0.0000000   0.2886751   0.2003420), wk =   0.0111111
        k(   13) = (   0.0000000   0.3849002   0.0000000), wk =   0.0055556
        k(   14) = (   0.0000000   0.3849002   0.1001710), wk =   0.0111111
        k(   15) = (   0.0000000   0.3849002   0.2003420), wk =   0.0111111
        k(   16) = (   0.0000000   0.4811252   0.0000000), wk =   0.0055556
        k(   17) = (   0.0000000   0.4811252   0.1001710), wk =   0.0111111
        k(   18) = (   0.0000000   0.4811252   0.2003420), wk =   0.0111111
        k(   19) = (   0.0000000  -0.5773503   0.0000000), wk =   0.0027778
        k(   20) = (   0.0000000  -0.5773503   0.1001710), wk =   0.0055556
        k(   21) = (   0.0000000  -0.5773503   0.2003420), wk =   0.0055556
        k(   22) = (   0.0833333   0.1443376   0.0000000), wk =   0.0111111
        k(   23) = (   0.0833333   0.1443376   0.1001710), wk =   0.0222222
        k(   24) = (   0.0833333   0.1443376   0.2003420), wk =   0.0222222
        k(   25) = (   0.0833333   0.2405626   0.0000000), wk =   0.0111111
        k(   26) = (   0.0833333   0.2405626   0.1001710), wk =   0.0222222
        k(   27) = (   0.0833333   0.2405626   0.2003420), wk =   0.0222222
        k(   28) = (   0.0833333   0.3367877   0.0000000), wk =   0.0111111
        k(   29) = (   0.0833333   0.3367877   0.1001710), wk =   0.0222222
        k(   30) = (   0.0833333   0.3367877   0.2003420), wk =   0.0222222
        k(   31) = (   0.0833333   0.4330127   0.0000000), wk =   0.0111111
        k(   32) = (   0.0833333   0.4330127   0.1001710), wk =   0.0222222
        k(   33) = (   0.0833333   0.4330127   0.2003420), wk =   0.0222222
        k(   34) = (   0.0833333   0.5292377   0.0000000), wk =   0.0111111
        k(   35) = (   0.0833333   0.5292377   0.1001710), wk =   0.0222222
        k(   36) = (   0.0833333   0.5292377   0.2003420), wk =   0.0222222
        k(   37) = (   0.1666667   0.2886751   0.0000000), wk =   0.0111111
        k(   38) = (   0.1666667   0.2886751   0.1001710), wk =   0.0222222
        k(   39) = (   0.1666667   0.2886751   0.2003420), wk =   0.0222222
        k(   40) = (   0.1666667   0.3849002   0.0000000), wk =   0.0111111
        k(   41) = (   0.1666667   0.3849002   0.1001710), wk =   0.0222222
        k(   42) = (   0.1666667   0.3849002   0.2003420), wk =   0.0222222
        k(   43) = (   0.1666667   0.4811252   0.0000000), wk =   0.0111111
        k(   44) = (   0.1666667   0.4811252   0.1001710), wk =   0.0222222
        k(   45) = (   0.1666667   0.4811252   0.2003420), wk =   0.0222222
        k(   46) = (   0.1666667   0.5773503   0.0000000), wk =   0.0055556
        k(   47) = (   0.1666667   0.5773503   0.1001710), wk =   0.0111111
        k(   48) = (   0.1666667   0.5773503   0.2003420), wk =   0.0111111
        k(   49) = (   0.2500000   0.4330127   0.0000000), wk =   0.0111111
        k(   50) = (   0.2500000   0.4330127   0.1001710), wk =   0.0222222
        k(   51) = (   0.2500000   0.4330127   0.2003420), wk =   0.0222222
        k(   52) = (   0.2500000   0.5292377   0.0000000), wk =   0.0111111
        k(   53) = (   0.2500000   0.5292377   0.1001710), wk =   0.0222222
        k(   54) = (   0.2500000   0.5292377   0.2003420), wk =   0.0222222
        k(   55) = (   0.3333333   0.5773503   0.0000000), wk =   0.0055556
        k(   56) = (   0.3333333   0.5773503   0.1001710), wk =   0.0111111
        k(   57) = (   0.3333333   0.5773503   0.2003420), wk =   0.0111111
        k(   58) = (  -0.0833333  -0.0481125   0.0000000), wk =   0.0111111
        k(   59) = (  -0.0833333  -0.0481125  -0.1001710), wk =   0.0222222
        k(   60) = (  -0.0833333  -0.0481125  -0.2003420), wk =   0.0222222
        k(   61) = (  -0.1666667  -0.0962250   0.0000000), wk =   0.0111111
        k(   62) = (  -0.1666667  -0.0962250  -0.1001710), wk =   0.0222222
        k(   63) = (  -0.1666667  -0.0962250  -0.2003420), wk =   0.0222222
        k(   64) = (  -0.2500000  -0.1443376   0.0000000), wk =   0.0111111
        k(   65) = (  -0.2500000  -0.1443376  -0.1001710), wk =   0.0222222
        k(   66) = (  -0.2500000  -0.1443376  -0.2003420), wk =   0.0222222
        k(   67) = (  -0.3333333  -0.1924501   0.0000000), wk =   0.0111111
        k(   68) = (  -0.3333333  -0.1924501  -0.1001710), wk =   0.0222222
        k(   69) = (  -0.3333333  -0.1924501  -0.2003420), wk =   0.0222222
        k(   70) = (  -0.4166667  -0.2405626   0.0000000), wk =   0.0111111
        k(   71) = (  -0.4166667  -0.2405626  -0.1001710), wk =   0.0222222
        k(   72) = (  -0.4166667  -0.2405626  -0.2003420), wk =   0.0222222
        k(   73) = (   0.5000000   0.2886751   0.0000000), wk =   0.0055556
        k(   74) = (   0.5000000   0.2886751  -0.1001710), wk =   0.0111111
        k(   75) = (   0.5000000   0.2886751  -0.2003420), wk =   0.0111111
        k(   76) = (   0.1666667  -0.0000000   0.0000000), wk =   0.0055556
        k(   77) = (   0.1666667  -0.0000000  -0.1001710), wk =   0.0111111
        k(   78) = (   0.1666667  -0.0000000  -0.2003420), wk =   0.0111111
        k(   79) = (  -0.1666667  -0.1924501   0.0000000), wk =   0.0111111
        k(   80) = (   0.2500000  -0.0481125   0.0000000), wk =   0.0111111
        k(   81) = (  -0.1666667  -0.1924501  -0.1001710), wk =   0.0222222
        k(   82) = (   0.2500000  -0.0481125  -0.1001710), wk =   0.0222222
        k(   83) = (  -0.1666667  -0.1924501  -0.2003420), wk =   0.0222222
        k(   84) = (   0.2500000  -0.0481125  -0.2003420), wk =   0.0222222
        k(   85) = (  -0.2500000  -0.2405626   0.0000000), wk =   0.0111111
        k(   86) = (   0.3333333  -0.0962250   0.0000000), wk =   0.0111111
        k(   87) = (  -0.2500000  -0.2405626  -0.1001710), wk =   0.0222222
        k(   88) = (   0.3333333  -0.0962250  -0.1001710), wk =   0.0222222
        k(   89) = (  -0.2500000  -0.2405626  -0.2003420), wk =   0.0222222
        k(   90) = (   0.3333333  -0.0962250  -0.2003420), wk =   0.0222222
        k(   91) = (  -0.3333333  -0.2886751   0.0000000), wk =   0.0111111
        k(   92) = (   0.4166667  -0.1443376   0.0000000), wk =   0.0111111
        k(   93) = (  -0.3333333  -0.2886751  -0.1001710), wk =   0.0222222
        k(   94) = (   0.4166667  -0.1443376  -0.1001710), wk =   0.0222222
        k(   95) = (  -0.3333333  -0.2886751  -0.2003420), wk =   0.0222222
        k(   96) = (   0.4166667  -0.1443376  -0.2003420), wk =   0.0222222
        k(   97) = (  -0.4166667  -0.3367877   0.0000000), wk =   0.0111111
        k(   98) = (   0.5000000  -0.1924501   0.0000000), wk =   0.0111111
        k(   99) = (  -0.4166667  -0.3367877  -0.1001710), wk =   0.0222222
        k(  100) = (   0.5000000  -0.1924501  -0.1001710), wk =   0.0222222
        k(  101) = (  -0.4166667  -0.3367877  -0.2003420), wk =   0.0222222
        k(  102) = (   0.5000000  -0.1924501  -0.2003420), wk =   0.0222222
        k(  103) = (   0.3333333  -0.0000000   0.0000000), wk =   0.0055556
        k(  104) = (   0.3333333  -0.0000000  -0.1001710), wk =   0.0111111
        k(  105) = (   0.3333333  -0.0000000  -0.2003420), wk =   0.0111111
        k(  106) = (  -0.2500000  -0.3367877   0.0000000), wk =   0.0111111
        k(  107) = (   0.4166667  -0.0481125   0.0000000), wk =   0.0111111
        k(  108) = (  -0.2500000  -0.3367877  -0.1001710), wk =   0.0222222
        k(  109) = (   0.4166667  -0.0481125  -0.1001710), wk =   0.0222222
        k(  110) = (  -0.2500000  -0.3367877  -0.2003420), wk =   0.0222222
        k(  111) = (   0.4166667  -0.0481125  -0.2003420), wk =   0.0222222
        k(  112) = (  -0.3333333  -0.3849002   0.0000000), wk =   0.0111111
        k(  113) = (   0.5000000  -0.0962250   0.0000000), wk =   0.0111111
        k(  114) = (  -0.3333333  -0.3849002  -0.1001710), wk =   0.0222222
        k(  115) = (   0.5000000  -0.0962250  -0.1001710), wk =   0.0222222
        k(  116) = (  -0.3333333  -0.3849002  -0.2003420), wk =   0.0222222
        k(  117) = (   0.5000000  -0.0962250  -0.2003420), wk =   0.0222222
        k(  118) = (  -0.4166667  -0.4330127   0.0000000), wk =   0.0111111
        k(  119) = (  -0.4166667  -0.4330127  -0.1001710), wk =   0.0222222
        k(  120) = (  -0.4166667  -0.4330127  -0.2003420), wk =   0.0222222
        k(  121) = (   0.5000000  -0.0000000   0.0000000), wk =   0.0055556
        k(  122) = (   0.5000000  -0.0000000  -0.1001710), wk =   0.0111111
        k(  123) = (   0.5000000  -0.0000000  -0.2003420), wk =   0.0111111
        k(  124) = (  -0.3333333  -0.4811252   0.0000000), wk =   0.0111111
        k(  125) = (   0.5833333  -0.0481125   0.0000000), wk =   0.0111111
        k(  126) = (  -0.3333333  -0.4811252  -0.1001710), wk =   0.0222222
        k(  127) = (   0.5833333  -0.0481125  -0.1001710), wk =   0.0222222
        k(  128) = (  -0.3333333  -0.4811252  -0.2003420), wk =   0.0222222
        k(  129) = (   0.5833333  -0.0481125  -0.2003420), wk =   0.0222222

                       cryst. coord.
        k(    1) = (   0.0000000   0.0000000   0.0000000), wk =   0.0027778
        k(    2) = (   0.0000000   0.0000000   0.2000000), wk =   0.0055556
        k(    3) = (   0.0000000   0.0000000   0.4000000), wk =   0.0055556
        k(    4) = (   0.0000000   0.0833333   0.0000000), wk =   0.0055556
        k(    5) = (   0.0000000   0.0833333   0.2000000), wk =   0.0111111
        k(    6) = (   0.0000000   0.0833333   0.4000000), wk =   0.0111111
        k(    7) = (   0.0000000   0.1666667   0.0000000), wk =   0.0055556
        k(    8) = (   0.0000000   0.1666667   0.2000000), wk =   0.0111111
        k(    9) = (   0.0000000   0.1666667   0.4000000), wk =   0.0111111
        k(   10) = (   0.0000000   0.2500000   0.0000000), wk =   0.0055556
        k(   11) = (   0.0000000   0.2500000   0.2000000), wk =   0.0111111
        k(   12) = (   0.0000000   0.2500000   0.4000000), wk =   0.0111111
        k(   13) = (   0.0000000   0.3333333   0.0000000), wk =   0.0055556
        k(   14) = (   0.0000000   0.3333333   0.2000000), wk =   0.0111111
        k(   15) = (   0.0000000   0.3333333   0.4000000), wk =   0.0111111
        k(   16) = (   0.0000000   0.4166667   0.0000000), wk =   0.0055556
        k(   17) = (   0.0000000   0.4166667   0.2000000), wk =   0.0111111
        k(   18) = (   0.0000000   0.4166667   0.4000000), wk =   0.0111111
        k(   19) = (   0.0000000  -0.5000000   0.0000000), wk =   0.0027778
        k(   20) = (   0.0000000  -0.5000000   0.2000000), wk =   0.0055556
        k(   21) = (   0.0000000  -0.5000000   0.4000000), wk =   0.0055556
        k(   22) = (   0.0833333   0.0833333   0.0000000), wk =   0.0111111
        k(   23) = (   0.0833333   0.0833333   0.2000000), wk =   0.0222222
        k(   24) = (   0.0833333   0.0833333   0.4000000), wk =   0.0222222
        k(   25) = (   0.0833333   0.1666667   0.0000000), wk =   0.0111111
        k(   26) = (   0.0833333   0.1666667   0.2000000), wk =   0.0222222
        k(   27) = (   0.0833333   0.1666667   0.4000000), wk =   0.0222222
        k(   28) = (   0.0833333   0.2500000   0.0000000), wk =   0.0111111
        k(   29) = (   0.0833333   0.2500000   0.2000000), wk =   0.0222222
        k(   30) = (   0.0833333   0.2500000   0.4000000), wk =   0.0222222
        k(   31) = (   0.0833333   0.3333333   0.0000000), wk =   0.0111111
        k(   32) = (   0.0833333   0.3333333   0.2000000), wk =   0.0222222
        k(   33) = (   0.0833333   0.3333333   0.4000000), wk =   0.0222222
        k(   34) = (   0.0833333   0.4166667   0.0000000), wk =   0.0111111
        k(   35) = (   0.0833333   0.4166667   0.2000000), wk =   0.0222222
        k(   36) = (   0.0833333   0.4166667   0.4000000), wk =   0.0222222
        k(   37) = (   0.1666667   0.1666667   0.0000000), wk =   0.0111111
        k(   38) = (   0.1666667   0.1666667   0.2000000), wk =   0.0222222
        k(   39) = (   0.1666667   0.1666667   0.4000000), wk =   0.0222222
        k(   40) = (   0.1666667   0.2500000   0.0000000), wk =   0.0111111
        k(   41) = (   0.1666667   0.2500000   0.2000000), wk =   0.0222222
        k(   42) = (   0.1666667   0.2500000   0.4000000), wk =   0.0222222
        k(   43) = (   0.1666667   0.3333333   0.0000000), wk =   0.0111111
        k(   44) = (   0.1666667   0.3333333   0.2000000), wk =   0.0222222
        k(   45) = (   0.1666667   0.3333333   0.4000000), wk =   0.0222222
        k(   46) = (   0.1666667   0.4166667   0.0000000), wk =   0.0055556
        k(   47) = (   0.1666667   0.4166667   0.2000000), wk =   0.0111111
        k(   48) = (   0.1666667   0.4166667   0.4000000), wk =   0.0111111
        k(   49) = (   0.2500000   0.2500000   0.0000000), wk =   0.0111111
        k(   50) = (   0.2500000   0.2500000   0.2000000), wk =   0.0222222
        k(   51) = (   0.2500000   0.2500000   0.4000000), wk =   0.0222222
        k(   52) = (   0.2500000   0.3333333   0.0000000), wk =   0.0111111
        k(   53) = (   0.2500000   0.3333333   0.2000000), wk =   0.0222222
        k(   54) = (   0.2500000   0.3333333   0.4000000), wk =   0.0222222
        k(   55) = (   0.3333333   0.3333333   0.0000000), wk =   0.0055556
        k(   56) = (   0.3333333   0.3333333   0.2000000), wk =   0.0111111
        k(   57) = (   0.3333333   0.3333333   0.4000000), wk =   0.0111111
        k(   58) = (  -0.0833333   0.0000000   0.0000000), wk =   0.0111111
        k(   59) = (  -0.0833333   0.0000000  -0.2000000), wk =   0.0222222
        k(   60) = (  -0.0833333   0.0000000  -0.4000000), wk =   0.0222222
        k(   61) = (  -0.1666667   0.0000000   0.0000000), wk =   0.0111111
        k(   62) = (  -0.1666667   0.0000000  -0.2000000), wk =   0.0222222
        k(   63) = (  -0.1666667   0.0000000  -0.4000000), wk =   0.0222222
        k(   64) = (  -0.2500000   0.0000000   0.0000000), wk =   0.0111111
        k(   65) = (  -0.2500000   0.0000000  -0.2000000), wk =   0.0222222
        k(   66) = (  -0.2500000   0.0000000  -0.4000000), wk =   0.0222222
        k(   67) = (  -0.3333333   0.0000000   0.0000000), wk =   0.0111111
        k(   68) = (  -0.3333333   0.0000000  -0.2000000), wk =   0.0222222
        k(   69) = (  -0.3333333   0.0000000  -0.4000000), wk =   0.0222222
        k(   70) = (  -0.4166667   0.0000000   0.0000000), wk =   0.0111111
        k(   71) = (  -0.4166667   0.0000000  -0.2000000), wk =   0.0222222
        k(   72) = (  -0.4166667   0.0000000  -0.4000000), wk =   0.0222222
        k(   73) = (   0.5000000   0.0000000   0.0000000), wk =   0.0055556
        k(   74) = (   0.5000000   0.0000000  -0.2000000), wk =   0.0111111
        k(   75) = (   0.5000000   0.0000000  -0.4000000), wk =   0.0111111
        k(   76) = (   0.1666667  -0.0833333   0.0000000), wk =   0.0055556
        k(   77) = (   0.1666667  -0.0833333  -0.2000000), wk =   0.0111111
        k(   78) = (   0.1666667  -0.0833333  -0.4000000), wk =   0.0111111
        k(   79) = (  -0.1666667  -0.0833333   0.0000000), wk =   0.0111111
        k(   80) = (   0.2500000  -0.1666667   0.0000000), wk =   0.0111111
        k(   81) = (  -0.1666667  -0.0833333  -0.2000000), wk =   0.0222222
        k(   82) = (   0.2500000  -0.1666667  -0.2000000), wk =   0.0222222
        k(   83) = (  -0.1666667  -0.0833333  -0.4000000), wk =   0.0222222
        k(   84) = (   0.2500000  -0.1666667  -0.4000000), wk =   0.0222222
        k(   85) = (  -0.2500000  -0.0833333   0.0000000), wk =   0.0111111
        k(   86) = (   0.3333333  -0.2500000   0.0000000), wk =   0.0111111
        k(   87) = (  -0.2500000  -0.0833333  -0.2000000), wk =   0.0222222
        k(   88) = (   0.3333333  -0.2500000  -0.2000000), wk =   0.0222222
        k(   89) = (  -0.2500000  -0.0833333  -0.4000000), wk =   0.0222222
        k(   90) = (   0.3333333  -0.2500000  -0.4000000), wk =   0.0222222
        k(   91) = (  -0.3333333  -0.0833333   0.0000000), wk =   0.0111111
        k(   92) = (   0.4166667  -0.3333333   0.0000000), wk =   0.0111111
        k(   93) = (  -0.3333333  -0.0833333  -0.2000000), wk =   0.0222222
        k(   94) = (   0.4166667  -0.3333333  -0.2000000), wk =   0.0222222
        k(   95) = (  -0.3333333  -0.0833333  -0.4000000), wk =   0.0222222
        k(   96) = (   0.4166667  -0.3333333  -0.4000000), wk =   0.0222222
        k(   97) = (  -0.4166667  -0.0833333   0.0000000), wk =   0.0111111
        k(   98) = (   0.5000000  -0.4166667   0.0000000), wk =   0.0111111
        k(   99) = (  -0.4166667  -0.0833333  -0.2000000), wk =   0.0222222
        k(  100) = (   0.5000000  -0.4166667  -0.2000000), wk =   0.0222222
        k(  101) = (  -0.4166667  -0.0833333  -0.4000000), wk =   0.0222222
        k(  102) = (   0.5000000  -0.4166667  -0.4000000), wk =   0.0222222
        k(  103) = (   0.3333333  -0.1666667   0.0000000), wk =   0.0055556
        k(  104) = (   0.3333333  -0.1666667  -0.2000000), wk =   0.0111111
        k(  105) = (   0.3333333  -0.1666667  -0.4000000), wk =   0.0111111
        k(  106) = (  -0.2500000  -0.1666667   0.0000000), wk =   0.0111111
        k(  107) = (   0.4166667  -0.2500000   0.0000000), wk =   0.0111111
        k(  108) = (  -0.2500000  -0.1666667  -0.2000000), wk =   0.0222222
        k(  109) = (   0.4166667  -0.2500000  -0.2000000), wk =   0.0222222
        k(  110) = (  -0.2500000  -0.1666667  -0.4000000), wk =   0.0222222
        k(  111) = (   0.4166667  -0.2500000  -0.4000000), wk =   0.0222222
        k(  112) = (  -0.3333333  -0.1666667   0.0000000), wk =   0.0111111
        k(  113) = (   0.5000000  -0.3333333   0.0000000), wk =   0.0111111
        k(  114) = (  -0.3333333  -0.1666667  -0.2000000), wk =   0.0222222
        k(  115) = (   0.5000000  -0.3333333  -0.2000000), wk =   0.0222222
        k(  116) = (  -0.3333333  -0.1666667  -0.4000000), wk =   0.0222222
        k(  117) = (   0.5000000  -0.3333333  -0.4000000), wk =   0.0222222
        k(  118) = (  -0.4166667  -0.1666667   0.0000000), wk =   0.0111111
        k(  119) = (  -0.4166667  -0.1666667  -0.2000000), wk =   0.0222222
        k(  120) = (  -0.4166667  -0.1666667  -0.4000000), wk =   0.0222222
        k(  121) = (   0.5000000  -0.2500000   0.0000000), wk =   0.0055556
        k(  122) = (   0.5000000  -0.2500000  -0.2000000), wk =   0.0111111
        k(  123) = (   0.5000000  -0.2500000  -0.4000000), wk =   0.0111111
        k(  124) = (  -0.3333333  -0.2500000   0.0000000), wk =   0.0111111
        k(  125) = (   0.5833333  -0.3333333   0.0000000), wk =   0.0111111
        k(  126) = (  -0.3333333  -0.2500000  -0.2000000), wk =   0.0222222
        k(  127) = (   0.5833333  -0.3333333  -0.2000000), wk =   0.0222222
        k(  128) = (  -0.3333333  -0.2500000  -0.4000000), wk =   0.0222222
        k(  129) = (   0.5833333  -0.3333333  -0.4000000), wk =   0.0222222

     Dense  grid:    33091 G-vectors     FFT dimensions: (  36,  36,  72)

     Smooth grid:    11681 G-vectors     FFT dimensions: (  24,  24,  48)

     Dynamical RAM for                 wfc:       0.22 MB

     Dynamical RAM for     wfc (w. buffer):      28.96 MB

     Dynamical RAM for           str. fact:       0.25 MB

     Dynamical RAM for           local pot:       0.00 MB

     Dynamical RAM for          nlocal pot:       0.40 MB

     Dynamical RAM for                qrad:       2.69 MB

     Dynamical RAM for          rho,v,vnew:       0.91 MB

     Dynamical RAM for               rhoin:       0.30 MB

     Dynamical RAM for            rho*nmix:       2.02 MB

     Dynamical RAM for           G-vectors:       0.50 MB

     Dynamical RAM for          h,s,v(r/c):       0.07 MB

     Dynamical RAM for          <psi|beta>:       0.04 MB

     Dynamical RAM for                 psi:       0.45 MB

     Dynamical RAM for                hpsi:       0.45 MB

     Dynamical RAM for                spsi:       0.45 MB

     Dynamical RAM for      wfcinit/wfcrot:       0.48 MB

     Dynamical RAM for           addusdens:      23.76 MB

     Estimated static dynamical RAM per process >      37.31 MB

     Estimated max dynamical RAM per process >      61.06 MB

     Estimated total dynamical RAM >     244.24 MB

     Check: negative core charge=   -0.000005

     Initial potential from superposition of free atoms

     starting charge   33.99984, renormalised to   36.00000

     negative rho (up, down):  2.152E-03 0.000E+00
     Starting wfcs are   28 randomized atomic wfcs +   12 random wfcs

     total cpu time spent up to now is        1.5 secs

     Self-consistent Calculation

     iteration #  1     ecut=    35.00 Ry     beta= 0.40
     Davidson diagonalization with overlap
     ethr =  1.00E-02,  avg # of iterations =  6.3

     negative rho (up, down):  2.072E-03 0.000E+00

     total cpu time spent up to now is        8.6 secs

     total energy              =    -287.02863268 Ry
     estimated scf accuracy    <       0.36734459 Ry

     iteration #  2     ecut=    35.00 Ry     beta= 0.40
     Davidson diagonalization with overlap
     ethr =  1.02E-03,  avg # of iterations =  2.0

     negative rho (up, down):  1.885E-03 0.000E+00

     total cpu time spent up to now is       12.3 secs

     total energy              =    -287.09986049 Ry
     estimated scf accuracy    <       0.09275333 Ry

     iteration #  3     ecut=    35.00 Ry     beta= 0.40
     Davidson diagonalization with overlap
     ethr =  2.58E-04,  avg # of iterations =  1.5

     negative rho (up, down):  1.725E-03 0.000E+00

     total cpu time spent up to now is       15.6 secs

     total energy              =    -287.11626422 Ry
     estimated scf accuracy    <       0.00764460 Ry

     iteration #  4     ecut=    35.00 Ry     beta= 0.40
     Davidson diagonalization with overlap
     ethr =  2.12E-05,  avg # of iterations =  4.2

     negative rho (up, down):  1.587E-03 0.000E+00

     total cpu time spent up to now is       19.7 secs

     total energy              =    -287.11756513 Ry
     estimated scf accuracy    <       0.00054731 Ry

     iteration #  5     ecut=    35.00 Ry     beta= 0.40
     Davidson diagonalization with overlap
     ethr =  1.52E-06,  avg # of iterations =  4.1

     negative rho (up, down):  1.568E-03 0.000E+00

     total cpu time spent up to now is       23.8 secs

     total energy              =    -287.11761522 Ry
     estimated scf accuracy    <       0.00006876 Ry

     iteration #  6     ecut=    35.00 Ry     beta= 0.40
     Davidson diagonalization with overlap
     ethr =  1.91E-07,  avg # of iterations =  2.1

     negative rho (up, down):  1.565E-03 0.000E+00

     total cpu time spent up to now is       27.5 secs

     total energy              =    -287.11763333 Ry
     estimated scf accuracy    <       0.00000875 Ry

     iteration #  7     ecut=    35.00 Ry     beta= 0.40
     Davidson diagonalization with overlap
     ethr =  2.43E-08,  avg # of iterations =  2.4

     negative rho (up, down):  1.564E-03 0.000E+00

     total cpu time spent up to now is       31.5 secs

     total energy              =    -287.11763611 Ry
     estimated scf accuracy    <       0.00000066 Ry

     iteration #  8     ecut=    35.00 Ry     beta= 0.40
     Davidson diagonalization with overlap
     ethr =  1.84E-09,  avg # of iterations =  3.8

     negative rho (up, down):  1.564E-03 0.000E+00

     total cpu time spent up to now is       35.7 secs

     total energy              =    -287.11763640 Ry
     estimated scf accuracy    <       0.00000002 Ry

     iteration #  9     ecut=    35.00 Ry     beta= 0.40
     Davidson diagonalization with overlap
     ethr =  5.84E-11,  avg # of iterations =  2.3

     negative rho (up, down):  1.564E-03 0.000E+00

     total cpu time spent up to now is       39.7 secs

     End of self-consistent calculation

          k = 0.0000 0.0000 0.0000 (  1481 PWs)   bands (ev):

   -44.2378 -44.2273 -20.6438 -20.4948 -20.4252 -20.4252 -20.4127 -20.4127
    -2.4571  -1.3073   5.4467   9.5610   9.5613   9.6982  11.0536  11.5974
    11.5977  12.8904  12.8904  13.1835  13.1836  14.4182  14.4184  14.6356
    16.6998  16.7005  17.1103  17.6711  21.0018  21.0021  22.2987  23.2888
    24.1769  24.5061  24.5065  24.9721  24.9727  25.9347  26.7595  26.7602

     occupation numbers 
     1.0000   1.0000   1.0000   1.0000   1.0000   1.0000   1.0000   1.0000
     1.0000   1.0000   1.0000   1.0000   1.0000   1.0000   1.0000   1.0000
     1.0000   1.0791   1.0791   0.2885   0.2883   0.0000   0.0000   0.0000
     0.0000   0.0000   0.0000   0.0000   0.0000   0.0000   0.0000   0.0000
     0.0000   0.0000   0.0000   0.0000   0.0000   0.0000   0.0000   0.0000

          k = 0.0000 0.0000 0.1002 (  1457 PWs)   bands (ev):

   -44.2368 -44.2283 -20.6298 -20.5093 -20.4240 -20.4240 -20.4139 -20.4139
    -2.3657  -1.4425   5.7490   8.9180   9.6708   9.6712  11.1569  11.1572
    11.6805  13.2581  13.2582  13.3596  13.3597  14.2632  14.3913  14.3914
    16.4115  16.4121  17.5242  18.0115  21.2686  21.2688  21.5472  22.4918
    23.8285  23.8289  25.1178  25.5574  25.5577  26.1744  26.7095  26.7102

     occupation numbers 
     1.0000   1.0000   1.0000   1.0000   1.0000   1.0000   1.0000   1.0000
     1.0000   1.0000   1.0000   1.0000   1.0000   1.0000   1.0000   1.0000
     1.0000   0.1200   0.1199   0.0241   0.0240   0.0000   0.0000   0.0000
     0.0000   0.0000   0.0000   0.0000   0.0000   0.0000   0.0000   0.0000
     0.0000   0.0000   0.0000   0.0000   0.0000   0.0000   0.0000   0.0000

          k = 0.0000 0.0000 0.2003 (  1446 PWs)   bands (ev):

   -44.2342 -44.2310 -20.5928 -20.5468 -20.4209 -20.4209 -20.4170 -20.4170
    -2.1123  -1.7638   6.5625   7.6930   9.9946   9.9949  10.5109  10.5112
    12.5819  13.4567  13.4569  13.4703  13.6577  13.6579  14.7942  14.7945
    15.6752  15.6756  18.4659  18.6388  20.6556  21.0659  21.9690  21.9691
    22.8906  22.8908  26.1621  26.1623  26.4283  26.5339  26.5344  26.6309

     occupation numbers 
     1.0000   1.0000   1.0000   1.0000   1.0000   1.0000   1.0000   1.0000
     1.0000   1.0000   1.0000   1.0000   1.0000   1.0000   1.0000   1.0000
     1.0030   0.0033   0.0033   0.0024   0.0000   0.0000   0.0000   0.0000
     0.0000   0.0000   0.0000   0.0000   0.0000   0.0000   0.0000   0.0000
     0.0000   0.0000   0.0000   0.0000   0.0000   0.0000   0.0000   0.0000

          k = 0.0000 0.0962 0.0000 (  1454 PWs)   bands (ev):

   -44.2366 -44.2261 -20.6407 -20.4931 -20.4377 -20.4280 -20.4241 -20.4153
    -2.3650  -1.2712   5.5670   9.3418   9.5210   9.5478  10.7294  11.3149
    11.3395  12.9816  13.0238  13.3293  13.4967  14.3916  14.4501  14.6634
    16.3948  16.6274  17.5099  18.2044  20.8142  21.3720  22.5050  22.5377
    23.5758  23.9119  24.6175  24.6627  25.4169  26.7384  27.0949  27.2182

     occupation numbers 
     1.0000   1.0000   1.0000   1.0000   1.0000   1.0000   1.0000   1.0000
     1.0000   1.0000   1.0000   1.0000   1.0000   1.0000   1.0000   1.0000
     1.0000   0.9635   0.8483   0.0409   0.0013   0.0000   0.0000   0.0000
     0.0000   0.0000   0.0000   0.0000   0.0000   0.0000   0.0000   0.0000
     0.0000   0.0000   0.0000   0.0000   0.0000   0.0000   0.0000   0.0000

          k = 0.0000 0.0962 0.1002 (  1449 PWs)   bands (ev):

   -44.2356 -44.2271 -20.6268 -20.5074 -20.4363 -20.4268 -20.4254 -20.4165
    -2.2772  -1.3983   5.8531   8.8403   9.4408   9.6528  10.5557  10.9950
    11.8760  13.0910  13.1567  13.5063  13.6890  14.3116  14.4114  14.4322
    16.1640  16.3890  17.9356  18.5065  20.8999  21.5772  21.8594  22.1014
    23.3187  23.8202  24.6384  25.4097  25.4826  26.6733  27.0464  27.2348

     occupation numbers 
     1.0000   1.0000   1.0000   1.0000   1.0000   1.0000   1.0000   1.0000
     1.0000   1.0000   1.0000   1.0000   1.0000   1.0000   1.0000   1.0000
     1.0000   0.6100   0.3721   0.0010   0.0000   0.0000   0.0000   0.0000
     0.0000   0.0000   0.0000   0.0000   0.0000   0.0000   0.0000   0.0000
     0.0000   0.0000   0.0000   0.0000   0.0000   0.0000   0.0000   0.0000

          k = 0.0000 0.0962 0.2003 (  1448 PWs)   bands (ev):

   -44.2330 -44.2297 -20.5902 -20.5446 -20.4329 -20.4287 -20.4236 -20.4197
    -2.0343  -1.7021   6.6242   7.6948   9.7237   9.9597  10.1386  10.4374
    12.7213  13.2720  13.4232  13.5570  13.6423  13.6900  14.7464  14.9281
    15.5140  15.7463  18.9160  19.1169  20.6253  20.9411  21.8810  22.1559
    22.5498  22.9635  25.4880  25.8419  26.0450  26.4588  27.1022  27.3108

     occupation numbers 
     1.0000   1.0000   1.0000   1.0000   1.0000   1.0000   1.0000   1.0000
     1.0000   1.0000   1.0000   1.0000   1.0000   1.0000   1.0000   1.0000
     1.0302   0.0992   0.0069   0.0003   0.0000   0.0000   0.0000   0.0000
     0.0000   0.0000   0.0000   0.0000   0.0000   0.0000   0.0000   0.0000
     0.0000   0.0000   0.0000   0.0000   0.0000   0.0000   0.0000   0.0000

          k = 0.0000 0.1925 0.0000 (  1444 PWs)   bands (ev):

   -44.2331 -44.2228 -20.6321 -20.4884 -20.4715 -20.4551 -20.4356 -20.4225
    -2.1005  -1.1680   5.9115   8.7897   9.1215   9.4881   9.5021  10.8396
    11.4380  13.1583  13.2365  13.5140  14.0422  14.3303  14.6409  14.7998
    15.9091  16.5375  18.3024  19.0181  20.8489  21.2989  22.3597  22.4153
    23.0082  23.0369  23.8242  24.9538  26.0404  26.8457  28.2294  28.6887

     occupation numbers 
     1.0000   1.0000   1.0000   1.0000   1.0000   1.0000   1.0000   1.0000
     1.0000   1.0000   1.0000   1.0000   1.0000   1.0000   1.0000   1.0000
     1.0000   0.3670   0.1589   0.0008   0.0000   0.0000   0.0000   0.0000
     0.0000   0.0000   0.0000   0.0000   0.0000   0.0000   0.0000   0.0000
     0.0000   0.0000   0.0000   0.0000   0.0000   0.0000   0.0000   0.0000

          k = 0.0000 0.1925 0.1002 (  1450 PWs)   bands (ev):

   -44.2321 -44.2238 -20.6186 -20.5025 -20.4697 -20.4567 -20.4344 -20.4238
    -2.0233  -1.2724   6.1458   8.5647   8.8732   9.5436   9.5819  10.6494
    11.8147  13.1113  13.2994  13.5901  13.9939  14.3981  14.5616  14.6906
    15.7986  16.3731  18.6806  19.2972  20.5444  21.5357  22.2086  22.4284
    22.4439  23.5844  23.6375  25.2554  25.8434  26.7003  27.7793  28.8385

     occupation numbers 
     1.0000   1.0000   1.0000   1.0000   1.0000   1.0000   1.0000   1.0000
     1.0000   1.0000   1.0000   1.0000   1.0000   1.0000   1.0000   1.0000
     1.0000   0.5338   0.0663   0.0001   0.0000   0.0000   0.0000   0.0000
     0.0000   0.0000   0.0000   0.0000   0.0000   0.0000   0.0000   0.0000
     0.0000   0.0000   0.0000   0.0000   0.0000   0.0000   0.0000   0.0000

          k = 0.0000 0.1925 0.2003 (  1450 PWs)   bands (ev):

   -44.2295 -44.2263 -20.5830 -20.5387 -20.4656 -20.4606 -20.4311 -20.4271
    -1.8116  -1.5268   6.7784   7.6506   9.0926   9.3661   9.8498  10.2442
    12.4997  12.9736  13.4892  13.6660  13.7587  13.9164  14.8249  15.1986
    15.3589  15.8881  19.4769  19.7928  20.4779  21.1306  21.8937  22.0552
    22.6935  23.1323  24.3858  25.2198  25.8005  26.3159  27.9435  28.5306

     occupation numbers 
     1.0000   1.0000   1.0000   1.0000   1.0000   1.0000   1.0000   1.0000
     1.0000   1.0000   1.0000   1.0000   1.0000   1.0000   1.0000   1.0000
     1.0005   0.9810   0.0015   0.0000   0.0000   0.0000   0.0000   0.0000
     0.0000   0.0000   0.0000   0.0000   0.0000   0.0000   0.0000   0.0000
     0.0000   0.0000   0.0000   0.0000   0.0000   0.0000   0.0000   0.0000

          k = 0.0000 0.2887 0.0000 (  1454 PWs)   bands (ev):

   -44.2284 -44.2182 -20.6204 -20.5172 -20.4974 -20.4817 -20.4460 -20.4324
    -1.7027  -1.0130   6.4258   8.0073   8.2516   8.6970   9.3470  10.4777
    11.5342  13.0147  13.5716  13.7976  14.3106  14.4767  14.8194  15.3142
    15.5252  16.6033  18.7806  19.1382  20.2635  21.5212  21.7278  21.9426
    22.7543  23.7614  23.7687  25.5046  26.6446  27.1054  28.8518  28.8799

     occupation numbers 
     1.0000   1.0000   1.0000   1.0000   1.0000   1.0000   1.0000   1.0000
     1.0000   1.0000   1.0000   1.0000   1.0000   1.0000   1.0000   1.0000
     1.0000   0.8763   0.0002   0.0000   0.0000   0.0000   0.0000   0.0000
     0.0000   0.0000   0.0000   0.0000   0.0000   0.0000   0.0000   0.0000
     0.0000   0.0000   0.0000   0.0000   0.0000   0.0000   0.0000   0.0000

          k = 0.0000 0.2887 0.1002 (  1455 PWs)   bands (ev):

   -44.2274 -44.2192 -20.6074 -20.5158 -20.4996 -20.4944 -20.4447 -20.4337
    -1.6425  -1.0857   6.5559   7.8504   8.2348   8.7386   9.4319  10.3353
    11.7130  12.8616  13.6061  13.8843  14.1611  14.5802  14.7911  15.0794
    15.6833  16.4432  18.8010  19.1937  20.5995  21.4705  21.5916  22.4124
    22.8656  23.6403  23.7024  25.5769  26.1714  26.8151  28.3255  29.2534

     occupation numbers 
     1.0000   1.0000   1.0000   1.0000   1.0000   1.0000   1.0000   1.0000
     1.0000   1.0000   1.0000   1.0000   1.0000   1.0000   1.0000   1.0000
     1.0000   1.0832   0.0001   0.0000   0.0000   0.0000   0.0000   0.0000
     0.0000   0.0000   0.0000   0.0000   0.0000   0.0000   0.0000   0.0000
     0.0000   0.0000   0.0000   0.0000   0.0000   0.0000   0.0000   0.0000

          k = 0.0000 0.2887 0.2003 (  1465 PWs)   bands (ev):

   -44.2249 -44.2217 -20.5733 -20.5313 -20.5092 -20.5038 -20.4413 -20.4371
    -1.4801  -1.2681   6.9066   7.3844   8.4333   8.6565   9.6709  10.0095
    12.1211  12.5352  13.7368  13.9455  13.9852  14.1766  15.1346  15.3795
    15.5012  15.9955  18.9346  19.2491  20.8681  21.2741  22.3731  22.7488
    23.1585  23.4883  23.6660  24.7184  25.8147  26.2573  28.4860  29.2088

     occupation numbers 
     1.0000   1.0000   1.0000   1.0000   1.0000   1.0000   1.0000   1.0000
     1.0000   1.0000   1.0000   1.0000   1.0000   1.0000   1.0000   1.0000
     1.0000   1.0011   0.0000   0.0000   0.0000   0.0000   0.0000   0.0000
     0.0000   0.0000   0.0000   0.0000   0.0000   0.0000   0.0000   0.0000
     0.0000   0.0000   0.0000   0.0000   0.0000   0.0000   0.0000   0.0000

          k = 0.0000 0.3849 0.0000 (  1452 PWs)   bands (ev):

   -44.2236 -44.2136 -20.6090 -20.5624 -20.5392 -20.4753 -20.4564 -20.4423
    -1.2559  -0.8266   6.8590   6.9968   7.5826   8.3758   9.1474  10.2813
    11.4574  12.6998  13.7652  14.3248  14.5146  14.7349  14.9709  15.3599
    15.9785  16.8104  18.4538  19.0215  19.5368  20.4499  21.2322  21.7175
    22.8425  25.1326  25.4560  26.1787  26.9844  27.3985  28.7508  28.8101

     occupation numbers 
     1.0000   1.0000   1.0000   1.0000   1.0000   1.0000   1.0000   1.0000
     1.0000   1.0000   1.0000   1.0000   1.0000   1.0000   1.0000   1.0000
     1.0000   1.0228   0.0000   0.0000   0.0000   0.0000   0.0000   0.0000
     0.0000   0.0000   0.0000   0.0000   0.0000   0.0000   0.0000   0.0000
     0.0000   0.0000   0.0000   0.0000   0.0000   0.0000   0.0000   0.0000

          k = 0.0000 0.3849 0.1002 (  1465 PWs)   bands (ev):

   -44.2227 -44.2146 -20.5965 -20.5602 -20.5414 -20.4880 -20.4550 -20.4436
    -1.2158  -0.8685   6.8167   6.9056   7.7738   8.3703   9.2319  10.1362
    11.5737  12.5532  13.8752  14.3357  14.4519  14.7794  14.9026  15.3506
    15.9884  16.5660  18.0251  19.0496  20.0980  20.5742  21.3389  22.0677
    23.2889  24.9191  25.0856  26.1788  26.3062  27.0857  28.4738  29.1112

     occupation numbers 
     1.0000   1.0000   1.0000   1.0000   1.0000   1.0000   1.0000   1.0000
     1.0000   1.0000   1.0000   1.0000   1.0000   1.0000   1.0000   1.0000
     1.0000   1.0017   0.0000   0.0000   0.0000   0.0000   0.0000   0.0000
     0.0000   0.0000   0.0000   0.0000   0.0000   0.0000   0.0000   0.0000
     0.0000   0.0000   0.0000   0.0000   0.0000   0.0000   0.0000   0.0000

          k = 0.0000 0.3849 0.2003 (  1473 PWs)   bands (ev):

   -44.2202 -44.2171 -20.5650 -20.5543 -20.5464 -20.5210 -20.4515 -20.4472
    -1.1098  -0.9772   6.7658   6.7995   8.0885   8.3007   9.4697   9.8080
    11.8683  12.2293  14.0932  14.2996  14.3058  14.4589  15.3669  15.5100
    15.8510  15.9951  17.9764  18.5175  20.5269  21.0324  22.2736  22.9520
    23.8699  24.0789  24.3023  25.0532  26.3511  26.6712  28.6011  29.1643

     occupation numbers 
     1.0000   1.0000   1.0000   1.0000   1.0000   1.0000   1.0000   1.0000
     1.0000   1.0000   1.0000   1.0000   1.0000   1.0000   1.0000   1.0000
     1.0000   1.0000   0.0000   0.0000   0.0000   0.0000   0.0000   0.0000
     0.0000   0.0000   0.0000   0.0000   0.0000   0.0000   0.0000   0.0000
     0.0000   0.0000   0.0000   0.0000   0.0000   0.0000   0.0000   0.0000

          k = 0.0000 0.4811 0.0000 (  1478 PWs)   bands (ev):

   -44.2202 -44.2103 -20.6033 -20.5924 -20.5697 -20.4705 -20.4639 -20.4495
    -0.9260  -0.6171   5.9890   7.1656   7.4137   8.2590   8.9822  10.1928
    11.3031  12.3754  13.7768  14.8717  14.8751  14.9381  15.0952  15.4497
    16.5557  17.0086  17.6175  18.9896  19.2541  19.6049  20.6011  20.9299
    23.5855  26.7238  26.8301  26.9461  27.2698  27.6202  28.6122  29.0950

     occupation numbers 
     1.0000   1.0000   1.0000   1.0000   1.0000   1.0000   1.0000   1.0000
     1.0000   1.0000   1.0000   1.0000   1.0000   1.0000   1.0000   1.0000
     1.0000   1.0000   0.0000   0.0000   0.0000   0.0000   0.0000   0.0000
     0.0000   0.0000   0.0000   0.0000   0.0000   0.0000   0.0000   0.0000
     0.0000   0.0000   0.0000   0.0000   0.0000   0.0000   0.0000   0.0000

          k = 0.0000 0.4811 0.1002 (  1465 PWs)   bands (ev):

   -44.2192 -44.2113 -20.5960 -20.5851 -20.5721 -20.4830 -20.4626 -20.4509
    -0.8962  -0.6462   6.0429   6.8342   7.7309   8.2442   9.0696  10.0312
    11.4263  12.3144  14.0108  14.8158  14.8430  14.9280  14.9645  15.6078
    16.4516  16.6248  17.2769  18.4928  19.5536  20.2284  20.9741  21.4546
    24.0338  25.6407  25.8512  26.9899  27.1179  27.8357  28.7439  29.2743

     occupation numbers 
     1.0000   1.0000   1.0000   1.0000   1.0000   1.0000   1.0000   1.0000
     1.0000   1.0000   1.0000   1.0000   1.0000   1.0000   1.0000   1.0000
     1.0000   1.0000   0.0000   0.0000   0.0000   0.0000   0.0000   0.0000
     0.0000   0.0000   0.0000   0.0000   0.0000   0.0000   0.0000   0.0000
     0.0000   0.0000   0.0000   0.0000   0.0000   0.0000   0.0000   0.0000

          k = 0.0000 0.4811 0.2003 (  1462 PWs)   bands (ev):

   -44.2168 -44.2137 -20.5873 -20.5790 -20.5548 -20.5154 -20.4590 -20.4545
    -0.8184  -0.7228   6.2040   6.4712   8.0309   8.1856   9.3175   9.6751
    11.7444  12.0998  14.4781  14.6499  14.7407  14.7721  15.1869  15.8490
    15.8752  16.2051  17.1503  17.6839  20.1874  20.6995  22.0207  22.6752
    23.7327  24.2110  25.3966  26.5799  27.2464  27.5956  28.8571  29.2243

     occupation numbers 
     1.0000   1.0000   1.0000   1.0000   1.0000   1.0000   1.0000   1.0000
     1.0000   1.0000   1.0000   1.0000   1.0000   1.0000   1.0000   1.0000
     1.0000   1.0000   0.0000   0.0000   0.0000   0.0000   0.0000   0.0000
     0.0000   0.0000   0.0000   0.0000   0.0000   0.0000   0.0000   0.0000
     0.0000   0.0000   0.0000   0.0000   0.0000   0.0000   0.0000   0.0000

          k = 0.0000-0.5774 0.0000 (  1464 PWs)   bands (ev):

   -44.2189 -44.2091 -20.6099 -20.5947 -20.5808 -20.4688 -20.4667 -20.4521
    -0.8263  -0.4963   5.6619   7.0179   7.5268   8.2892   8.9203  10.1671
    11.2315  12.2287  13.7663  14.9171  15.0478  15.1232  15.1442  15.7605
    16.8374  17.0859  17.0958  18.6212  19.4242  19.5247  20.1434  20.6245
    23.8167  26.8476  26.9077  27.7023  28.4015  28.4483  28.5635  28.7371

     occupation numbers 
     1.0000   1.0000   1.0000   1.0000   1.0000   1.0000   1.0000   1.0000
     1.0000   1.0000   1.0000   1.0000   1.0000   1.0000   1.0000   1.0000
     1.0000   1.0000   0.0000   0.0000   0.0000   0.0000   0.0000   0.0000
     0.0000   0.0000   0.0000   0.0000   0.0000   0.0000   0.0000   0.0000
     0.0000   0.0000   0.0000   0.0000   0.0000   0.0000   0.0000   0.0000

          k = 0.0000-0.5774 0.1002 (  1468 PWs)   bands (ev):

   -44.2180 -44.2100 -20.6063 -20.5836 -20.5834 -20.4811 -20.4653 -20.4535
    -0.7951  -0.5281   5.7433   6.7367   7.7541   8.2596   9.0092   9.9977
    11.3710  12.2128  14.0535  14.9293  14.9682  15.0351  15.0940  15.8334
    16.6206  16.7129  16.9875  17.9315  19.3782  20.4819  20.5527  21.2256
    24.2315  25.6888  25.9343  27.4579  28.1325  28.5750  28.8858  29.1341

     occupation numbers 
     1.0000   1.0000   1.0000   1.0000   1.0000   1.0000   1.0000   1.0000
     1.0000   1.0000   1.0000   1.0000   1.0000   1.0000   1.0000   1.0000
     1.0000   1.0000   0.0000   0.0000   0.0000   0.0000   0.0000   0.0000
     0.0000   0.0000   0.0000   0.0000   0.0000   0.0000   0.0000   0.0000
     0.0000   0.0000   0.0000   0.0000   0.0000   0.0000   0.0000   0.0000

          k = 0.0000-0.5774 0.2003 (  1462 PWs)   bands (ev):

   -44.2155 -44.2125 -20.5988 -20.5902 -20.5525 -20.5132 -20.4617 -20.4572
    -0.7131  -0.6111   5.9750   6.3244   8.0157   8.1740   9.2618   9.6286
    11.7174  12.0652  14.7717  14.8132  14.9525  14.9613  15.0030  15.7004
    16.0833  16.5042  16.7592  17.1144  20.0389  20.5903  21.9343  22.5588
    23.6204  24.1953  25.8392  27.3678  27.7438  28.1804  29.1061  29.3172

     occupation numbers 
     1.0000   1.0000   1.0000   1.0000   1.0000   1.0000   1.0000   1.0000
     1.0000   1.0000   1.0000   1.0000   1.0000   1.0000   1.0000   1.0000
     1.0000   1.0000   0.0000   0.0000   0.0000   0.0000   0.0000   0.0000
     0.0000   0.0000   0.0000   0.0000   0.0000   0.0000   0.0000   0.0000
     0.0000   0.0000   0.0000   0.0000   0.0000   0.0000   0.0000   0.0000

          k = 0.0833 0.1443 0.0000 (  1448 PWs)   bands (ev):

   -44.2342 -44.2238 -20.6348 -20.4899 -20.4601 -20.4447 -20.4339 -20.4208
    -2.1866  -1.2015   5.7997   8.9813   9.2376   9.4419   9.9926  10.7937
    11.4472  13.1489  13.1572  13.6383  13.7585  14.3163  14.6185  14.7222
    16.1501  16.3960  18.1081  18.9448  20.6870  21.6209  22.0404  22.7377
    22.8099  23.1553  24.6485  24.8921  25.0770  27.5361  27.6335  28.3341

     occupation numbers 
     1.0000   1.0000   1.0000   1.0000   1.0000   1.0000   1.0000   1.0000
     1.0000   1.0000   1.0000   1.0000   1.0000   1.0000   1.0000   1.0000
     1.0000   0.3986   0.3706   0.0000   0.0000   0.0000   0.0000   0.0000
     0.0000   0.0000   0.0000   0.0000   0.0000   0.0000   0.0000   0.0000
     0.0000   0.0000   0.0000   0.0000   0.0000   0.0000   0.0000   0.0000

          k = 0.0833 0.1443 0.1002 (  1451 PWs)   bands (ev):

   -44.2332 -44.2248 -20.6212 -20.5040 -20.4586 -20.4462 -20.4326 -20.4221
    -2.1059  -1.3132   6.0520   8.6684   9.0676   9.5293   9.9418  10.6217
    11.9214  13.0802  13.1453  13.7892  13.8263  14.3384  14.5455  14.5723
    15.9327  16.2930  18.5156  19.2310  20.7269  21.2141  22.1597  22.3706
    22.6507  23.3985  24.6139  24.7201  25.6469  26.9027  27.6570  28.3296

     occupation numbers 
     1.0000   1.0000   1.0000   1.0000   1.0000   1.0000   1.0000   1.0000
     1.0000   1.0000   1.0000   1.0000   1.0000   1.0000   1.0000   1.0000
     1.0000   0.6507   0.4109   0.0000   0.0000   0.0000   0.0000   0.0000
     0.0000   0.0000   0.0000   0.0000   0.0000   0.0000   0.0000   0.0000
     0.0000   0.0000   0.0000   0.0000   0.0000   0.0000   0.0000   0.0000

          k = 0.0833 0.1443 0.2003 (  1452 PWs)   bands (ev):

   -44.2306 -44.2274 -20.5853 -20.5406 -20.4547 -20.4500 -20.4294 -20.4253
    -1.8839  -1.5836   6.7335   7.6764   9.3021   9.5770   9.9021  10.2433
    12.7592  13.1217  13.1739  13.5021  13.8320  13.9486  14.7499  15.1202
    15.3848  15.8566  19.4753  19.8344  20.6587  20.6638  21.6638  22.0141
    22.7722  23.1174  24.9460  25.0263  25.9748  26.2145  27.9045  28.1986

     occupation numbers 
     1.0000   1.0000   1.0000   1.0000   1.0000   1.0000   1.0000   1.0000
     1.0000   1.0000   1.0000   1.0000   1.0000   1.0000   1.0000   1.0000
     1.0461   0.4951   0.3172   0.0011   0.0000   0.0000   0.0000   0.0000
     0.0000   0.0000   0.0000   0.0000   0.0000   0.0000   0.0000   0.0000
     0.0000   0.0000   0.0000   0.0000   0.0000   0.0000   0.0000   0.0000

          k = 0.0833 0.2406 0.0000 (  1450 PWs)   bands (ev):

   -44.2301 -44.2199 -20.6247 -20.4983 -20.4843 -20.4798 -20.4445 -20.4309
    -1.8538  -1.0726   6.2316   8.3980   8.6685   8.8385   9.4387  10.2499
    11.6696  13.1191  13.4637  13.8025  14.2131  14.2439  14.8188  15.1028
    15.8120  16.2944  18.7166  19.6688  20.5763  21.0013  21.8634  22.1274
    23.1286  23.3519  23.3697  25.4880  25.6242  27.9571  28.6857  28.9098

     occupation numbers 
     1.0000   1.0000   1.0000   1.0000   1.0000   1.0000   1.0000   1.0000
     1.0000   1.0000   1.0000   1.0000   1.0000   1.0000   1.0000   1.0000
     1.0000   0.5047   0.0028   0.0000   0.0000   0.0000   0.0000   0.0000
     0.0000   0.0000   0.0000   0.0000   0.0000   0.0000   0.0000   0.0000
     0.0000   0.0000   0.0000   0.0000   0.0000   0.0000   0.0000   0.0000

          k = 0.0833 0.2406 0.1002 (  1450 PWs)   bands (ev):

   -44.2291 -44.2208 -20.6115 -20.5002 -20.4942 -20.4815 -20.4432 -20.4322
    -1.7871  -1.1569   6.4090   8.2201   8.4879   8.9569   9.5137  10.1608
    11.9347  13.0221  13.2589  13.8584  14.1570  14.4970  14.7420  14.9304
    15.7604  16.2413  19.0044  19.8021  20.4870  21.1797  21.7526  22.1794
    22.9651  23.1316  23.8172  25.2250  25.8841  27.1973  28.3296  29.5891

     occupation numbers 
     1.0000   1.0000   1.0000   1.0000   1.0000   1.0000   1.0000   1.0000
     1.0000   1.0000   1.0000   1.0000   1.0000   1.0000   1.0000   1.0000
     1.0000   0.8536   0.1189   0.0000   0.0000   0.0000   0.0000   0.0000
     0.0000   0.0000   0.0000   0.0000   0.0000   0.0000   0.0000   0.0000
     0.0000   0.0000   0.0000   0.0000   0.0000   0.0000   0.0000   0.0000

          k = 0.0833 0.2406 0.2003 (  1458 PWs)   bands (ev):

   -44.2266 -44.2234 -20.5768 -20.5337 -20.4914 -20.4860 -20.4398 -20.4356
    -1.6057  -1.3662   6.8875   7.5430   8.6886   8.8972   9.6867   9.9356
    12.4752  12.8256  13.2062  13.5287  14.2044  14.2894  14.9085  15.1884
    15.5520  15.9956  19.5379  19.8694  20.7484  21.1961  21.4861  21.9197
    23.2240  23.6604  23.8985  24.6314  25.9033  26.1769  28.7359  29.4744

     occupation numbers 
     1.0000   1.0000   1.0000   1.0000   1.0000   1.0000   1.0000   1.0000
     1.0000   1.0000   1.0000   1.0000   1.0000   1.0000   1.0000   1.0000
     1.0003   1.0755   0.2269   0.0006   0.0000   0.0000   0.0000   0.0000
     0.0000   0.0000   0.0000   0.0000   0.0000   0.0000   0.0000   0.0000
     0.0000   0.0000   0.0000   0.0000   0.0000   0.0000   0.0000   0.0000

          k = 0.0833 0.3368 0.0000 (  1457 PWs)   bands (ev):

   -44.2254 -44.2153 -20.6130 -20.5418 -20.5201 -20.4777 -20.4568 -20.4426
    -1.4240  -0.9043   6.7848   7.4288   7.8327   8.4736   9.1714   9.8991
    11.8263  12.8947  13.7143  14.0066  14.2872  14.6694  14.9477  15.5365
    15.7575  16.4478  18.9422  19.4841  19.6952  20.9835  21.4565  22.1348
    22.1690  23.8208  24.7444  25.9968  26.3209  28.3056  28.8100  29.1344

     occupation numbers 
     1.0000   1.0000   1.0000   1.0000   1.0000   1.0000   1.0000   1.0000
     1.0000   1.0000   1.0000   1.0000   1.0000   1.0000   1.0000   1.0000
     1.0000   1.0774   0.0000   0.0000   0.0000   0.0000   0.0000   0.0000
     0.0000   0.0000   0.0000   0.0000   0.0000   0.0000   0.0000   0.0000
     0.0000   0.0000   0.0000   0.0000   0.0000   0.0000   0.0000   0.0000

          k = 0.0833 0.3368 0.1002 (  1461 PWs)   bands (ev):

   -44.2244 -44.2163 -20.6004 -20.5399 -20.5221 -20.4906 -20.4555 -20.4439
    -1.3767  -0.9565   6.8079   7.3384   7.9347   8.4795   9.2398   9.8287
    11.9348  12.7428  13.5279  14.1293  14.3490  14.7968  14.8449  15.3150
    15.8674  16.3339  18.7107  19.4431  20.3409  21.0434  21.3559  22.2260
    22.5731  23.6664  24.6796  25.6086  26.5615  27.4039  28.7098  29.2286

     occupation numbers 
     1.0000   1.0000   1.0000   1.0000   1.0000   1.0000   1.0000   1.0000
     1.0000   1.0000   1.0000   1.0000   1.0000   1.0000   1.0000   1.0000
     1.0000   1.0389   0.0006   0.0000   0.0000   0.0000   0.0000   0.0000
     0.0000   0.0000   0.0000   0.0000   0.0000   0.0000   0.0000   0.0000
     0.0000   0.0000   0.0000   0.0000   0.0000   0.0000   0.0000   0.0000

          k = 0.0833 0.3368 0.2003 (  1462 PWs)   bands (ev):

   -44.2219 -44.2188 -20.5673 -20.5362 -20.5275 -20.5224 -20.4519 -20.4475
    -1.2508  -1.0904   6.9139   7.1172   8.1910   8.4090   9.4188   9.6438
    12.1778  12.4488  13.5501  13.8327  14.4605  14.6053  15.1529  15.3424
    15.7906  16.1122  18.7089  19.1538  20.7936  21.0973  22.0468  22.6060
    23.1598  23.5617  24.0341  24.8533  26.3897  26.6195  28.9800  29.6292

     occupation numbers 
     1.0000   1.0000   1.0000   1.0000   1.0000   1.0000   1.0000   1.0000
     1.0000   1.0000   1.0000   1.0000   1.0000   1.0000   1.0000   1.0000
     1.0000   1.0001   0.0003   0.0000   0.0000   0.0000   0.0000   0.0000
     0.0000   0.0000   0.0000   0.0000   0.0000   0.0000   0.0000   0.0000
     0.0000   0.0000   0.0000   0.0000   0.0000   0.0000   0.0000   0.0000

          k = 0.0833 0.4330 0.0000 (  1460 PWs)   bands (ev):

   -44.2213 -44.2114 -20.6034 -20.5787 -20.5546 -20.4721 -20.4675 -20.4527
    -1.0175  -0.7121   6.4193   7.3037   7.3332   8.2513   8.9578   9.6636
    11.8317  12.5838  13.7422  14.3645  14.6577  15.0153  15.0713  15.4580
    16.3617  16.5967  18.5699  19.0992  19.3964  19.8963  21.0714  21.3123
    23.0889  25.0334  26.0132  26.0865  27.1571  28.5356  29.0535  29.2248

     occupation numbers 
     1.0000   1.0000   1.0000   1.0000   1.0000   1.0000   1.0000   1.0000
     1.0000   1.0000   1.0000   1.0000   1.0000   1.0000   1.0000   1.0000
     1.0000   1.0032   0.0000   0.0000   0.0000   0.0000   0.0000   0.0000
     0.0000   0.0000   0.0000   0.0000   0.0000   0.0000   0.0000   0.0000
     0.0000   0.0000   0.0000   0.0000   0.0000   0.0000   0.0000   0.0000

          k = 0.0833 0.4330 0.1002 (  1469 PWs)   bands (ev):

   -44.2203 -44.2123 -20.5916 -20.5760 -20.5569 -20.4846 -20.4661 -20.4541
    -0.9879  -0.7407   6.4389   6.9453   7.7195   8.2483   9.0225   9.5932
    11.8670  12.4807  13.8087  14.5181  14.5559  14.9652  15.0335  15.5425
    16.2151  16.4425  18.0052  19.1222  19.8006  20.2538  21.0238  21.9006
    23.4878  24.8187  24.8959  26.3591  27.3096  27.7642  28.9777  29.4583

     occupation numbers 
     1.0000   1.0000   1.0000   1.0000   1.0000   1.0000   1.0000   1.0000
     1.0000   1.0000   1.0000   1.0000   1.0000   1.0000   1.0000   1.0000
     1.0000   1.0003   0.0000   0.0000   0.0000   0.0000   0.0000   0.0000
     0.0000   0.0000   0.0000   0.0000   0.0000   0.0000   0.0000   0.0000
     0.0000   0.0000   0.0000   0.0000   0.0000   0.0000   0.0000   0.0000

          k = 0.0833 0.4330 0.2003 (  1467 PWs)   bands (ev):

   -44.2179 -44.2148 -20.5719 -20.5647 -20.5558 -20.5172 -20.4624 -20.4578
    -0.9106  -0.8162   6.5120   6.6721   8.0389   8.2046   9.1923   9.4095
    12.0089  12.2483  13.9997  14.2738  14.6987  14.8722  15.1954  15.5347
    15.9928  16.2802  17.7880  18.3261  20.5062  20.9766  21.5100  22.7536
    23.4696  24.3268  24.4068  25.4896  27.1085  27.7295  29.1075  29.5162

     occupation numbers 
     1.0000   1.0000   1.0000   1.0000   1.0000   1.0000   1.0000   1.0000
     1.0000   1.0000   1.0000   1.0000   1.0000   1.0000   1.0000   1.0000
     1.0000   1.0000   0.0000   0.0000   0.0000   0.0000   0.0000   0.0000
     0.0000   0.0000   0.0000   0.0000   0.0000   0.0000   0.0000   0.0000
     0.0000   0.0000   0.0000   0.0000   0.0000   0.0000   0.0000   0.0000

          k = 0.0833 0.5292 0.0000 (  1472 PWs)   bands (ev):

   -44.2189 -44.2091 -20.6040 -20.5937 -20.5745 -20.4737 -20.4688 -20.4585
    -0.8109  -0.5229   5.8214   7.0585   7.5571   8.2419   8.8420   9.5322
    11.7843  12.3415  13.7305  14.6982  14.9860  15.0892  15.1360  15.7243
    16.5259  16.7412  18.1176  18.8553  19.1284  19.6810  20.5367  20.8848
    23.4888  25.8624  26.4443  26.9592  27.8058  28.6278  28.9736  29.2387

     occupation numbers 
     1.0000   1.0000   1.0000   1.0000   1.0000   1.0000   1.0000   1.0000
     1.0000   1.0000   1.0000   1.0000   1.0000   1.0000   1.0000   1.0000
     1.0000   1.0000   0.0000   0.0000   0.0000   0.0000   0.0000   0.0000
     0.0000   0.0000   0.0000   0.0000   0.0000   0.0000   0.0000   0.0000
     0.0000   0.0000   0.0000   0.0000   0.0000   0.0000   0.0000   0.0000

          k = 0.0833 0.5292 0.1002 (  1467 PWs)   bands (ev):

   -44.2180 -44.2100 -20.5997 -20.5834 -20.5770 -20.4811 -20.4723 -20.4600
    -0.7833  -0.5503   5.8953   6.8024   7.7701   8.2221   8.8998   9.4663
    11.8052  12.3119  13.9805  14.7062  14.8815  15.0416  15.1192  15.8468
    16.2267  16.6665  17.6644  18.3729  19.4138  20.1857  20.8112  21.5861
    23.9351  24.6744  26.1645  27.0121  27.3383  28.7376  29.2044  29.7637

     occupation numbers 
     1.0000   1.0000   1.0000   1.0000   1.0000   1.0000   1.0000   1.0000
     1.0000   1.0000   1.0000   1.0000   1.0000   1.0000   1.0000   1.0000
     1.0000   1.0000   0.0000   0.0000   0.0000   0.0000   0.0000   0.0000
     0.0000   0.0000   0.0000   0.0000   0.0000   0.0000   0.0000   0.0000
     0.0000   0.0000   0.0000   0.0000   0.0000   0.0000   0.0000   0.0000

          k = 0.0833 0.5292 0.2003 (  1461 PWs)   bands (ev):

   -44.2155 -44.2125 -20.5921 -20.5838 -20.5525 -20.5132 -20.4685 -20.4638
    -0.7111  -0.6220   6.1060   6.4247   8.0197   8.1592   9.0602   9.2812
    11.9508  12.1782  14.4720  14.6913  14.7974  15.0454  15.0959  15.5155
    16.2099  16.5681  17.1566  17.5312  20.2491  20.8071  21.3162  22.7948
    23.0829  24.4725  25.5282  26.3590  27.5043  28.4835  29.5637  29.7222

     occupation numbers 
     1.0000   1.0000   1.0000   1.0000   1.0000   1.0000   1.0000   1.0000
     1.0000   1.0000   1.0000   1.0000   1.0000   1.0000   1.0000   1.0000
     1.0000   1.0000   0.0000   0.0000   0.0000   0.0000   0.0000   0.0000
     0.0000   0.0000   0.0000   0.0000   0.0000   0.0000   0.0000   0.0000
     0.0000   0.0000   0.0000   0.0000   0.0000   0.0000   0.0000   0.0000

          k = 0.1667 0.2887 0.0000 (  1452 PWs)   bands (ev):

   -44.2260 -44.2159 -20.6145 -20.5313 -20.5102 -20.4787 -20.4600 -20.4454
    -1.4843  -0.9315   6.7097   7.7791   7.9389   8.5111   9.1504   9.5368
    12.0424  13.0108  13.6742  13.8943  14.1527  14.6321  14.9551  15.6981
    15.8661  16.0251  19.0717  19.7126  20.7086  21.0148  21.2211  21.4516
    22.4025  23.3408  24.3749  25.4576  26.4835  28.8763  29.1131  29.2312

     occupation numbers 
     1.0000   1.0000   1.0000   1.0000   1.0000   1.0000   1.0000   1.0000
     1.0000   1.0000   1.0000   1.0000   1.0000   1.0000   1.0000   1.0000
     1.0000   0.8878   0.0000   0.0000   0.0000   0.0000   0.0000   0.0000
     0.0000   0.0000   0.0000   0.0000   0.0000   0.0000   0.0000   0.0000
     0.0000   0.0000   0.0000   0.0000   0.0000   0.0000   0.0000   0.0000

          k = 0.1667 0.2887 0.1002 (  1463 PWs)   bands (ev):

   -44.2251 -44.2169 -20.6018 -20.5295 -20.5122 -20.4916 -20.4587 -20.4468
    -1.4344  -0.9877   6.7746   7.6124   8.0451   8.5250   9.2094   9.5108
    12.2093  12.9566  13.1552  13.9772  14.4598  14.6887  14.9173  15.2965
    15.9103  16.1361  19.1718  19.8095  20.8620  21.0254  21.2895  21.7653
    22.1795  23.0621  24.9703  24.9827  26.6817  27.6789  29.2077  29.2117

     occupation numbers 
     1.0000   1.0000   1.0000   1.0000   1.0000   1.0000   1.0000   1.0000
     1.0000   1.0000   1.0000   1.0000   1.0000   1.0000   1.0000   1.0000
     1.0000   1.0134   0.3773   0.0000   0.0000   0.0000   0.0000   0.0000
     0.0000   0.0000   0.0000   0.0000   0.0000   0.0000   0.0000   0.0000
     0.0000   0.0000   0.0000   0.0000   0.0000   0.0000   0.0000   0.0000

          k = 0.1667 0.2887 0.2003 (  1464 PWs)   bands (ev):

   -44.2225 -44.2194 -20.5684 -20.5299 -20.5201 -20.5171 -20.4550 -20.4505
    -1.3014  -1.1310   6.9714   7.2791   8.2813   8.4727   9.3254   9.4351
    12.5063  12.7359  13.0589  13.5461  14.6176  14.7246  15.0368  15.1076
    15.8716  16.1504  19.4341  19.8289  20.7267  20.7407  21.6875  22.4003
    22.7176  22.9401  24.1628  24.9927  26.4599  26.6940  29.8838  29.9464

     occupation numbers 
     1.0000   1.0000   1.0000   1.0000   1.0000   1.0000   1.0000   1.0000
     1.0000   1.0000   1.0000   1.0000   1.0000   1.0000   1.0000   1.0000
     1.0006   1.0360   0.7290   0.0003   0.0000   0.0000   0.0000   0.0000
     0.0000   0.0000   0.0000   0.0000   0.0000   0.0000   0.0000   0.0000
     0.0000   0.0000   0.0000   0.0000   0.0000   0.0000   0.0000   0.0000

          k = 0.1667 0.3849 0.0000 (  1469 PWs)   bands (ev):

   -44.2219 -44.2120 -20.6045 -20.5621 -20.5389 -20.4774 -20.4731 -20.4615
    -1.0699  -0.7685   6.9122   7.2430   7.4810   8.2427   8.7528   9.0866
    12.3806  12.8406  13.5988  13.8844  14.5023  15.0584  15.0693  15.6493
    16.2169  16.2836  18.8929  19.2659  20.4226  20.4300  21.3916  21.5218
    22.2687  23.6920  25.0200  25.1793  27.3990  29.4345  29.5881  29.7702

     occupation numbers 
     1.0000   1.0000   1.0000   1.0000   1.0000   1.0000   1.0000   1.0000
     1.0000   1.0000   1.0000   1.0000   1.0000   1.0000   1.0000   1.0000
     1.0000   1.0800   0.0001   0.0000   0.0000   0.0000   0.0000   0.0000
     0.0000   0.0000   0.0000   0.0000   0.0000   0.0000   0.0000   0.0000
     0.0000   0.0000   0.0000   0.0000   0.0000   0.0000   0.0000   0.0000

          k = 0.1667 0.3849 0.1002 (  1468 PWs)   bands (ev):

   -44.2210 -44.2129 -20.5922 -20.5600 -20.5410 -20.4857 -20.4759 -20.4631
    -1.0406  -0.7967   6.8849   7.0477   7.7406   8.2514   8.7964   9.0648
    12.4060  12.7594  13.2837  14.3163  14.4079  15.0293  15.0743  15.5023
    16.0887  16.3806  18.7722  19.3555  20.5204  20.7384  21.2360  21.7762
    22.3940  23.5510  24.4198  25.7151  27.7918  27.8885  29.4742  29.9839

     occupation numbers 
     1.0000   1.0000   1.0000   1.0000   1.0000   1.0000   1.0000   1.0000
     1.0000   1.0000   1.0000   1.0000   1.0000   1.0000   1.0000   1.0000
     1.0000   1.0462   0.0839   0.0000   0.0000   0.0000   0.0000   0.0000
     0.0000   0.0000   0.0000   0.0000   0.0000   0.0000   0.0000   0.0000
     0.0000   0.0000   0.0000   0.0000   0.0000   0.0000   0.0000   0.0000

          k = 0.1667 0.3849 0.2003 (  1463 PWs)   bands (ev):

   -44.2185 -44.2154 -20.5608 -20.5544 -20.5458 -20.5183 -20.4719 -20.4670
    -0.9644  -0.8712   6.8493   6.8886   8.0451   8.2169   8.8995   9.0004
    12.4172  12.5215  13.4432  13.9037  14.7632  14.9791  15.1374  15.2664
    16.1238  16.3699  18.7232  19.2385  20.5347  20.8899  21.7188  22.1267
    22.9804  23.2463  23.7971  25.4527  27.2215  27.9841  29.7211  30.3463

     occupation numbers 
     1.0000   1.0000   1.0000   1.0000   1.0000   1.0000   1.0000   1.0000
     1.0000   1.0000   1.0000   1.0000   1.0000   1.0000   1.0000   1.0000
     1.0001   1.0008   0.0044   0.0000   0.0000   0.0000   0.0000   0.0000
     0.0000   0.0000   0.0000   0.0000   0.0000   0.0000   0.0000   0.0000
     0.0000   0.0000   0.0000   0.0000   0.0000   0.0000   0.0000   0.0000

          k = 0.1667 0.4811 0.0000 (  1470 PWs)   bands (ev):

   -44.2189 -44.2091 -20.5976 -20.5833 -20.5592 -20.4907 -20.4742 -20.4687
    -0.7684  -0.5875   6.2342   7.1513   7.6321   8.1346   8.5401   8.7613
    12.5216  12.6255  13.5619  14.1338  14.9134  15.0820  15.1452  15.7502
    16.2665  16.6051  18.3227  19.2464  19.8022  20.3632  21.1078  21.3322
    22.8707  24.6139  24.7397  25.6055  27.7449  29.2120  29.7097  29.9587

     occupation numbers 
     1.0000   1.0000   1.0000   1.0000   1.0000   1.0000   1.0000   1.0000
     1.0000   1.0000   1.0000   1.0000   1.0000   1.0000   1.0000   1.0000
     1.0008   1.0070   0.0002   0.0000   0.0000   0.0000   0.0000   0.0000
     0.0000   0.0000   0.0000   0.0000   0.0000   0.0000   0.0000   0.0000
     0.0000   0.0000   0.0000   0.0000   0.0000   0.0000   0.0000   0.0000

          k = 0.1667 0.4811 0.1002 (  1464 PWs)   bands (ev):

   -44.2180 -44.2100 -20.5867 -20.5799 -20.5615 -20.4892 -20.4813 -20.4755
    -0.7501  -0.6038   6.2871   6.9614   7.7982   8.1371   8.5636   8.7331
    12.4423  12.5573  13.6633  14.3606  14.7407  15.0830  15.1194  15.7255
    16.1623  16.6406  18.3331  19.0225  19.5529  20.6280  21.2880  21.8098
    23.2929  23.7624  24.5151  26.0899  27.6406  28.5952  30.1137  30.2377

     occupation numbers 
     1.0000   1.0000   1.0000   1.0000   1.0000   1.0000   1.0000   1.0000
     1.0000   1.0000   1.0000   1.0000   1.0000   1.0000   1.0000   1.0000
     1.0001   1.0018   0.0000   0.0000   0.0000   0.0000   0.0000   0.0000
     0.0000   0.0000   0.0000   0.0000   0.0000   0.0000   0.0000   0.0000
     0.0000   0.0000   0.0000   0.0000   0.0000   0.0000   0.0000   0.0000

          k = 0.1667 0.4811 0.2003 (  1461 PWs)   bands (ev):

   -44.2155 -44.2125 -20.5759 -20.5682 -20.5524 -20.5133 -20.4849 -20.4798
    -0.7034  -0.6474   6.4393   6.6748   8.0106   8.1195   8.6094   8.6685
    12.3681  12.4255  13.9760  14.3726  14.7559  15.0325  15.1379  15.3592
    16.3729  16.6589  17.9955  18.4860  20.2841  20.9691  21.3812  21.8097
    23.4337  23.9545  24.3770  25.7137  27.2584  28.6660  30.2169  30.5389

     occupation numbers 
     1.0000   1.0000   1.0000   1.0000   1.0000   1.0000   1.0000   1.0000
     1.0000   1.0000   1.0000   1.0000   1.0000   1.0000   1.0000   1.0000
     1.0000   1.0001   0.0000   0.0000   0.0000   0.0000   0.0000   0.0000
     0.0000   0.0000   0.0000   0.0000   0.0000   0.0000   0.0000   0.0000
     0.0000   0.0000   0.0000   0.0000   0.0000   0.0000   0.0000   0.0000

          k = 0.1667 0.5774 0.0000 (  1476 PWs)   bands (ev):

   -44.2178 -44.2080 -20.5969 -20.5892 -20.5665 -20.4957 -20.4787 -20.4673
    -0.6872  -0.4748   5.9727   7.0323   7.7200   8.1735   8.5116   8.6048
    12.5185  12.5364  13.5741  14.4134  14.8780  15.1106  15.1547  15.9580
    16.1740  16.6582  18.1404  19.1830  19.5575  20.5341  21.0309  21.1580
    22.8612  24.5136  25.6132  25.9104  27.7229  28.5454  29.6999  29.7196

     occupation numbers 
     1.0000   1.0000   1.0000   1.0000   1.0000   1.0000   1.0000   1.0000
     1.0000   1.0000   1.0000   1.0000   1.0000   1.0000   1.0000   1.0000
     1.0008   1.0011   0.0002   0.0000   0.0000   0.0000   0.0000   0.0000
     0.0000   0.0000   0.0000   0.0000   0.0000   0.0000   0.0000   0.0000
     0.0000   0.0000   0.0000   0.0000   0.0000   0.0000   0.0000   0.0000

          k = 0.1667 0.5774 0.1002 (  1461 PWs)   bands (ev):

   -44.2169 -44.2090 -20.5909 -20.5808 -20.5690 -20.4941 -20.4803 -20.4795
    -0.6666  -0.4948   6.0524   6.8747   7.8352   8.1589   8.5143   8.5789
    12.4346  12.4866  13.8530  14.4579  14.8541  15.0379  15.1057  15.8798
    16.1492  16.6754  18.3601  18.8583  19.0041  20.6321  21.3913  21.8842
    23.3626  23.4577  25.5689  26.1049  27.4540  28.8522  29.3782  30.2778

     occupation numbers 
     1.0000   1.0000   1.0000   1.0000   1.0000   1.0000   1.0000   1.0000
     1.0000   1.0000   1.0000   1.0000   1.0000   1.0000   1.0000   1.0000
     1.0001   1.0003   0.0000   0.0000   0.0000   0.0000   0.0000   0.0000
     0.0000   0.0000   0.0000   0.0000   0.0000   0.0000   0.0000   0.0000
     0.0000   0.0000   0.0000   0.0000   0.0000   0.0000   0.0000   0.0000

          k = 0.1667 0.5774 0.2003 (  1461 PWs)   bands (ev):

   -44.2144 -44.2114 -20.5834 -20.5754 -20.5504 -20.5114 -20.4898 -20.4846
    -0.6131  -0.5475   6.2702   6.5707   8.0141   8.1192   8.5094   8.5275
    12.3575  12.4075  14.4080  14.5567  14.7391  14.8938  15.1118  15.3502
    16.5744  16.7747  17.8246  17.9561  20.1066  21.0228  21.3274  21.7228
    23.3082  24.1537  25.4675  25.7292  27.0954  28.3200  30.4678  30.8892

     occupation numbers 
     1.0000   1.0000   1.0000   1.0000   1.0000   1.0000   1.0000   1.0000
     1.0000   1.0000   1.0000   1.0000   1.0000   1.0000   1.0000   1.0000
     1.0000   1.0000   0.0000   0.0000   0.0000   0.0000   0.0000   0.0000
     0.0000   0.0000   0.0000   0.0000   0.0000   0.0000   0.0000   0.0000
     0.0000   0.0000   0.0000   0.0000   0.0000   0.0000   0.0000   0.0000

          k = 0.2500 0.4330 0.0000 (  1472 PWs)   bands (ev):

   -44.2189 -44.2091 -20.5970 -20.5728 -20.5488 -20.5021 -20.4846 -20.4688
    -0.7295  -0.6371   6.5495   7.2088   7.6831   8.0682   8.0800   8.6369
    12.8519  12.9701  13.3720  13.7167  14.9097  15.0823  15.1611  15.7782
    16.1831  16.5440  18.0563  19.7480  20.2954  21.0779  21.1937  21.7501
    22.4442  23.7848  24.2434  24.5685  27.8402  29.1258  30.2609  30.2637

     occupation numbers 
     1.0000   1.0000   1.0000   1.0000   1.0000   1.0000   1.0000   1.0000
     1.0000   1.0000   1.0000   1.0000   1.0000   1.0000   1.0000   1.0000
     1.0823   0.9882   0.0191   0.0000   0.0000   0.0000   0.0000   0.0000
     0.0000   0.0000   0.0000   0.0000   0.0000   0.0000   0.0000   0.0000
     0.0000   0.0000   0.0000   0.0000   0.0000   0.0000   0.0000   0.0000

          k = 0.2500 0.4330 0.1002 (  1471 PWs)   bands (ev):

   -44.2180 -44.2100 -20.5850 -20.5705 -20.5511 -20.5004 -20.4866 -20.4808
    -0.7193  -0.6446   6.5822   7.0648   7.8118   8.0659   8.1388   8.5901
    12.6754  12.9525  13.2445  14.2050  14.7107  15.0727  15.1357  15.6234
    16.2155  16.6644  18.4810  18.9581  20.4399  21.2099  21.3400  21.8397
    22.6133  23.3619  23.8988  25.3996  27.7857  28.5824  30.1529  30.9910

     occupation numbers 
     1.0000   1.0000   1.0000   1.0000   1.0000   1.0000   1.0000   1.0000
     1.0000   1.0000   1.0000   1.0000   1.0000   1.0000   1.0000   1.0000
     1.0161   1.0201   0.1436   0.0000   0.0000   0.0000   0.0000   0.0000
     0.0000   0.0000   0.0000   0.0000   0.0000   0.0000   0.0000   0.0000
     0.0000   0.0000   0.0000   0.0000   0.0000   0.0000   0.0000   0.0000

          k = 0.2500 0.4330 0.2003 (  1464 PWs)   bands (ev):

   -44.2155 -44.2125 -20.5647 -20.5585 -20.5517 -20.5134 -20.4960 -20.4905
    -0.6940  -0.6655   6.6807   6.8471   7.9769   8.0551   8.2802   8.4564
    12.5557  12.6248  13.6905  14.2120  14.7320  15.0026  15.1533  15.3213
    16.4297  16.7163  18.6502  19.0717  19.8465  20.7612  21.6944  22.1919
    22.9665  23.3214  23.8438  25.6554  27.1986  28.7518  30.4096  30.9241

     occupation numbers 
     1.0000   1.0000   1.0000   1.0000   1.0000   1.0000   1.0000   1.0000
     1.0000   1.0000   1.0000   1.0000   1.0000   1.0000   1.0000   1.0000
     1.0018   1.0069   0.0000   0.0000   0.0000   0.0000   0.0000   0.0000
     0.0000   0.0000   0.0000   0.0000   0.0000   0.0000   0.0000   0.0000
     0.0000   0.0000   0.0000   0.0000   0.0000   0.0000   0.0000   0.0000

          k = 0.2500 0.5292 0.0000 (  1468 PWs)   bands (ev):

   -44.2172 -44.2074 -20.5928 -20.5740 -20.5503 -20.5211 -20.5020 -20.4665
    -0.5742  -0.4942   6.3623   7.0537   7.6456   7.8882   8.0516   8.4146
    12.8236  13.2487  13.3165  13.9368  14.6826  15.0653  15.4083  15.9836
    16.1290  16.4226  17.5534  20.1733  20.4042  21.0214  21.5808  21.9901
    22.4802  23.4578  24.1294  24.6437  27.8162  28.1153  28.9886  30.5326

     occupation numbers 
     1.0000   1.0000   1.0000   1.0000   1.0000   1.0000   1.0000   1.0000
     1.0000   1.0000   1.0000   1.0000   1.0000   1.0000   1.0000   1.0000
     1.0748   0.1360   0.0506   0.0000   0.0000   0.0000   0.0000   0.0000
     0.0000   0.0000   0.0000   0.0000   0.0000   0.0000   0.0000   0.0000
     0.0000   0.0000   0.0000   0.0000   0.0000   0.0000   0.0000   0.0000

          k = 0.2500 0.5292 0.1002 (  1465 PWs)   bands (ev):

   -44.2162 -44.2083 -20.5810 -20.5717 -20.5526 -20.5193 -20.5038 -20.4786
    -0.5659  -0.5012   6.4374   6.9914   7.6736   7.9222   8.0567   8.3126
    12.7393  12.8958  13.7115  14.1613  14.7223  14.9615  15.2286  15.7131
    16.3261  16.6627  17.9809  19.2945  19.9059  21.4495  21.7357  22.2431
    22.6373  23.0862  24.1839  25.1719  27.3776  28.7104  28.8505  30.6966

     occupation numbers 
     1.0000   1.0000   1.0000   1.0000   1.0000   1.0000   1.0000   1.0000
     1.0000   1.0000   1.0000   1.0000   1.0000   1.0000   1.0000   1.0000
     1.0374   1.0769   0.0000   0.0000   0.0000   0.0000   0.0000   0.0000
     0.0000   0.0000   0.0000   0.0000   0.0000   0.0000   0.0000   0.0000
     0.0000   0.0000   0.0000   0.0000   0.0000   0.0000   0.0000   0.0000

          k = 0.2500 0.5292 0.2003 (  1464 PWs)   bands (ev):

   -44.2138 -44.2108 -20.5661 -20.5588 -20.5492 -20.5145 -20.5105 -20.5082
    -0.5449  -0.5202   6.6238   6.8325   7.7811   7.9375   8.0588   8.1253
    12.6326  12.6654  14.1565  14.5627  14.6421  14.8236  15.0408  15.2571
    16.7473  16.9552  18.4669  18.7819  19.3944  20.6432  21.8166  22.0459
    23.3169  23.5811  24.5135  25.8257  26.5664  27.9247  30.6503  30.8892

     occupation numbers 
     1.0000   1.0000   1.0000   1.0000   1.0000   1.0000   1.0000   1.0000
     1.0000   1.0000   1.0000   1.0000   1.0000   1.0000   1.0000   1.0000
     1.0080   1.0138   0.0000   0.0000   0.0000   0.0000   0.0000   0.0000
     0.0000   0.0000   0.0000   0.0000   0.0000   0.0000   0.0000   0.0000
     0.0000   0.0000   0.0000   0.0000   0.0000   0.0000   0.0000   0.0000

          k = 0.3333 0.5774 0.0000 (  1476 PWs)   bands (ev):

   -44.2165 -44.2068 -20.5911 -20.5514 -20.5514 -20.5296 -20.5296 -20.4656
    -0.4801  -0.4801   6.6911   7.0259   7.0260   8.0033   8.0034   8.2968
    13.0772  13.0774  13.8335  13.8336  14.2148  15.0403  15.9288  15.9292
    16.0748  16.0749  17.2670  20.9874  20.9881  21.1550  21.1554  22.6936
    22.7895  23.2007  23.5993  23.5995  27.9108  27.9114  27.9129  31.0775

     occupation numbers 
     1.0000   1.0000   1.0000   1.0000   1.0000   1.0000   1.0000   1.0000
     1.0000   1.0000   1.0000   1.0000   1.0000   1.0000   1.0000   1.0000
     0.6621   0.6612   0.0000   0.0000   0.0000   0.0000   0.0000   0.0000
     0.0000   0.0000   0.0000   0.0000   0.0000   0.0000   0.0000   0.0000
     0.0000   0.0000   0.0000   0.0000   0.0000   0.0000   0.0000   0.0000

          k = 0.3333 0.5774 0.1002 (  1458 PWs)   bands (ev):

[...]
    16.1238  16.3699  18.7230  19.2383  20.5346  20.8898  21.7191  22.1270
    22.9805  23.2462  23.7978  25.4529  27.2213  27.9841  29.7210  30.3461

     occupation numbers 
     1.0000   1.0000   1.0000   1.0000   1.0000   1.0000   1.0000   1.0000
     1.0000   1.0000   1.0000   1.0000   1.0000   1.0000   1.0000   1.0000
     1.0001   1.0008   0.0044   0.0000   0.0000   0.0000   0.0000   0.0000
     0.0000   0.0000   0.0000   0.0000   0.0000   0.0000   0.0000   0.0000
     0.0000   0.0000   0.0000   0.0000   0.0000   0.0000   0.0000   0.0000

          k =-0.3333-0.3849 0.0000 (  1470 PWs)   bands (ev):

   -44.2189 -44.2091 -20.5977 -20.5833 -20.5592 -20.4907 -20.4742 -20.4687
    -0.7684  -0.5874   6.2344   7.1512   7.6319   8.1349   8.5401   8.7611
    12.5215  12.6257  13.5617  14.1339  14.9133  15.0821  15.1452  15.7501
    16.2666  16.6049  18.3231  19.2468  19.8010  20.3630  21.1084  21.3320
    22.8705  24.6142  24.7404  25.6055  27.7447  29.2124  29.7103  29.9591

     occupation numbers 
     1.0000   1.0000   1.0000   1.0000   1.0000   1.0000   1.0000   1.0000
     1.0000   1.0000   1.0000   1.0000   1.0000   1.0000   1.0000   1.0000
     1.0008   1.0070   0.0002   0.0000   0.0000   0.0000   0.0000   0.0000
     0.0000   0.0000   0.0000   0.0000   0.0000   0.0000   0.0000   0.0000
     0.0000   0.0000   0.0000   0.0000   0.0000   0.0000   0.0000   0.0000

          k = 0.5000-0.0962 0.0000 (  1470 PWs)   bands (ev):

   -44.2189 -44.2091 -20.5977 -20.5833 -20.5592 -20.4907 -20.4742 -20.4687
    -0.7684  -0.5874   6.2345   7.1511   7.6319   8.1349   8.5398   8.7613
    12.5215  12.6257  13.5617  14.1339  14.9135  15.0822  15.1452  15.7503
    16.2664  16.6045  18.3233  19.2467  19.8014  20.3632  21.1079  21.3321
    22.8702  24.6142  24.7405  25.6056  27.7451  29.2125  29.7110  29.9588

     occupation numbers 
     1.0000   1.0000   1.0000   1.0000   1.0000   1.0000   1.0000   1.0000
     1.0000   1.0000   1.0000   1.0000   1.0000   1.0000   1.0000   1.0000
     1.0008   1.0070   0.0002   0.0000   0.0000   0.0000   0.0000   0.0000
     0.0000   0.0000   0.0000   0.0000   0.0000   0.0000   0.0000   0.0000
     0.0000   0.0000   0.0000   0.0000   0.0000   0.0000   0.0000   0.0000

          k =-0.3333-0.3849-0.1002 (  1464 PWs)   bands (ev):

   -44.2180 -44.2100 -20.5867 -20.5799 -20.5615 -20.4892 -20.4813 -20.4755
    -0.7502  -0.6037   6.2873   6.9613   7.7980   8.1374   8.5635   8.7329
    12.4423  12.5575  13.6632  14.3606  14.7406  15.0831  15.1194  15.7254
    16.1624  16.6403  18.3334  19.0222  19.5526  20.6280  21.2882  21.8101
    23.2926  23.7628  24.5154  26.0898  27.6408  28.5954  30.1136  30.2378

     occupation numbers 
     1.0000   1.0000   1.0000   1.0000   1.0000   1.0000   1.0000   1.0000
     1.0000   1.0000   1.0000   1.0000   1.0000   1.0000   1.0000   1.0000
     1.0001   1.0018   0.0000   0.0000   0.0000   0.0000   0.0000   0.0000
     0.0000   0.0000   0.0000   0.0000   0.0000   0.0000   0.0000   0.0000
     0.0000   0.0000   0.0000   0.0000   0.0000   0.0000   0.0000   0.0000

          k = 0.5000-0.0962-0.1002 (  1464 PWs)   bands (ev):

   -44.2180 -44.2100 -20.5867 -20.5799 -20.5615 -20.4892 -20.4813 -20.4755
    -0.7502  -0.6037   6.2873   6.9612   7.7980   8.1374   8.5633   8.7331
    12.4423  12.5574  13.6632  14.3605  14.7407  15.0831  15.1195  15.7256
    16.1622  16.6401  18.3333  19.0226  19.5525  20.6279  21.2879  21.8103
    23.2924  23.7631  24.5153  26.0898  27.6411  28.5955  30.1133  30.2382

     occupation numbers 
     1.0000   1.0000   1.0000   1.0000   1.0000   1.0000   1.0000   1.0000
     1.0000   1.0000   1.0000   1.0000   1.0000   1.0000   1.0000   1.0000
     1.0001   1.0018   0.0000   0.0000   0.0000   0.0000   0.0000   0.0000
     0.0000   0.0000   0.0000   0.0000   0.0000   0.0000   0.0000   0.0000
     0.0000   0.0000   0.0000   0.0000   0.0000   0.0000   0.0000   0.0000

          k =-0.3333-0.3849-0.2003 (  1461 PWs)   bands (ev):

   -44.2155 -44.2125 -20.5759 -20.5682 -20.5524 -20.5133 -20.4849 -20.4798
    -0.7034  -0.6474   6.4393   6.6748   8.0106   8.1197   8.6093   8.6684
    12.3680  12.4255  13.9760  14.3725  14.7558  15.0324  15.1379  15.3591
    16.3729  16.6588  17.9954  18.4855  20.2846  20.9693  21.3811  21.8101
    23.4342  23.9544  24.3771  25.7138  27.2580  28.6655  30.2171  30.5389

     occupation numbers 
     1.0000   1.0000   1.0000   1.0000   1.0000   1.0000   1.0000   1.0000
     1.0000   1.0000   1.0000   1.0000   1.0000   1.0000   1.0000   1.0000
     1.0000   1.0001   0.0000   0.0000   0.0000   0.0000   0.0000   0.0000
     0.0000   0.0000   0.0000   0.0000   0.0000   0.0000   0.0000   0.0000
     0.0000   0.0000   0.0000   0.0000   0.0000   0.0000   0.0000   0.0000

          k = 0.5000-0.0962-0.2003 (  1461 PWs)   bands (ev):

   -44.2155 -44.2125 -20.5759 -20.5682 -20.5524 -20.5133 -20.4849 -20.4798
    -0.7034  -0.6474   6.4393   6.6747   8.0106   8.1197   8.6093   8.6685
    12.3680  12.4254  13.9760  14.3726  14.7557  15.0325  15.1379  15.3591
    16.3728  16.6588  17.9953  18.4857  20.2844  20.9690  21.3813  21.8103
    23.4344  23.9543  24.3771  25.7139  27.2581  28.6656  30.2170  30.5391

     occupation numbers 
     1.0000   1.0000   1.0000   1.0000   1.0000   1.0000   1.0000   1.0000
     1.0000   1.0000   1.0000   1.0000   1.0000   1.0000   1.0000   1.0000
     1.0000   1.0001   0.0000   0.0000   0.0000   0.0000   0.0000   0.0000
     0.0000   0.0000   0.0000   0.0000   0.0000   0.0000   0.0000   0.0000
     0.0000   0.0000   0.0000   0.0000   0.0000   0.0000   0.0000   0.0000

          k =-0.4167-0.4330 0.0000 (  1476 PWs)   bands (ev):

   -44.2178 -44.2080 -20.5969 -20.5892 -20.5665 -20.4957 -20.4787 -20.4673
    -0.6872  -0.4747   5.9729   7.0321   7.7198   8.1737   8.5115   8.6046
    12.5187  12.5363  13.5739  14.4135  14.8781  15.1106  15.1547  15.9578
    16.1741  16.6579  18.1409  19.1836  19.5562  20.5340  21.0314  21.1579
    22.8609  24.5145  25.6134  25.9106  27.7228  28.5460  29.6993  29.7206

     occupation numbers 
     1.0000   1.0000   1.0000   1.0000   1.0000   1.0000   1.0000   1.0000
     1.0000   1.0000   1.0000   1.0000   1.0000   1.0000   1.0000   1.0000
     1.0008   1.0011   0.0002   0.0000   0.0000   0.0000   0.0000   0.0000
     0.0000   0.0000   0.0000   0.0000   0.0000   0.0000   0.0000   0.0000
     0.0000   0.0000   0.0000   0.0000   0.0000   0.0000   0.0000   0.0000

          k =-0.4167-0.4330-0.1002 (  1461 PWs)   bands (ev):

   -44.2169 -44.2090 -20.5909 -20.5808 -20.5690 -20.4941 -20.4803 -20.4795
    -0.6667  -0.4947   6.0526   6.8745   7.8350   8.1591   8.5141   8.5788
    12.4346  12.4868  13.8528  14.4580  14.8541  15.0379  15.1057  15.8798
    16.1492  16.6750  18.3606  18.8574  19.0044  20.6320  21.3912  21.8847
    23.3624  23.4582  25.5690  26.1049  27.4546  28.8525  29.3776  30.2779

     occupation numbers 
     1.0000   1.0000   1.0000   1.0000   1.0000   1.0000   1.0000   1.0000
     1.0000   1.0000   1.0000   1.0000   1.0000   1.0000   1.0000   1.0000
     1.0001   1.0003   0.0000   0.0000   0.0000   0.0000   0.0000   0.0000
     0.0000   0.0000   0.0000   0.0000   0.0000   0.0000   0.0000   0.0000
     0.0000   0.0000   0.0000   0.0000   0.0000   0.0000   0.0000   0.0000

          k =-0.4167-0.4330-0.2003 (  1461 PWs)   bands (ev):

   -44.2144 -44.2114 -20.5834 -20.5754 -20.5504 -20.5114 -20.4898 -20.4846
    -0.6131  -0.5474   6.2703   6.5705   8.0141   8.1194   8.5092   8.5274
    12.3575  12.4076  14.4079  14.5566  14.7390  14.8938  15.1118  15.3502
    16.5743  16.7744  17.8248  17.9556  20.1072  21.0228  21.3274  21.7235
    23.3088  24.1536  25.4674  25.7295  27.0951  28.3193  30.4683  30.8892

     occupation numbers 
     1.0000   1.0000   1.0000   1.0000   1.0000   1.0000   1.0000   1.0000
     1.0000   1.0000   1.0000   1.0000   1.0000   1.0000   1.0000   1.0000
     1.0000   1.0000   0.0000   0.0000   0.0000   0.0000   0.0000   0.0000
     0.0000   0.0000   0.0000   0.0000   0.0000   0.0000   0.0000   0.0000
     0.0000   0.0000   0.0000   0.0000   0.0000   0.0000   0.0000   0.0000

          k = 0.5000-0.0000 0.0000 (  1472 PWs)   bands (ev):

   -44.2189 -44.2091 -20.5970 -20.5728 -20.5488 -20.5021 -20.4846 -20.4688
    -0.7295  -0.6370   6.5497   7.2086   7.6830   8.0683   8.0797   8.6370
    12.8520  12.9701  13.3718  13.7167  14.9100  15.0824  15.1611  15.7784
    16.1829  16.5434  18.0567  19.7481  20.2955  21.0774  21.1941  21.7498
    22.4439  23.7851  24.2440  24.5685  27.8405  29.1259  30.2618  30.2635

     occupation numbers 
     1.0000   1.0000   1.0000   1.0000   1.0000   1.0000   1.0000   1.0000
     1.0000   1.0000   1.0000   1.0000   1.0000   1.0000   1.0000   1.0000
     1.0823   0.9881   0.0192   0.0000   0.0000   0.0000   0.0000   0.0000
     0.0000   0.0000   0.0000   0.0000   0.0000   0.0000   0.0000   0.0000
     0.0000   0.0000   0.0000   0.0000   0.0000   0.0000   0.0000   0.0000

          k = 0.5000-0.0000-0.1002 (  1471 PWs)   bands (ev):

   -44.2180 -44.2100 -20.5850 -20.5705 -20.5511 -20.5004 -20.4866 -20.4808
    -0.7194  -0.6445   6.5823   7.0647   7.8117   8.0658   8.1388   8.5902
    12.6755  12.9523  13.2446  14.2049  14.7110  15.0728  15.1356  15.6234
    16.2154  16.6640  18.4815  18.9581  20.4393  21.2100  21.3405  21.8394
    22.6131  23.3626  23.8990  25.3994  27.7861  28.5827  30.1524  30.9393

     occupation numbers 
     1.0000   1.0000   1.0000   1.0000   1.0000   1.0000   1.0000   1.0000
     1.0000   1.0000   1.0000   1.0000   1.0000   1.0000   1.0000   1.0000
     1.0161   1.0204   0.1435   0.0000   0.0000   0.0000   0.0000   0.0000
     0.0000   0.0000   0.0000   0.0000   0.0000   0.0000   0.0000   0.0000
     0.0000   0.0000   0.0000   0.0000   0.0000   0.0000   0.0000   0.0000

          k = 0.5000-0.0000-0.2003 (  1464 PWs)   bands (ev):

   -44.2155 -44.2125 -20.5647 -20.5585 -20.5517 -20.5134 -20.4960 -20.4905
    -0.6941  -0.6655   6.6807   6.8470   7.9768   8.0550   8.2803   8.4566
    12.5556  12.6247  13.6906  14.2122  14.7318  15.0026  15.1533  15.3213
    16.4297  16.7162  18.6501  19.0719  19.8461  20.7612  21.6948  22.1922
    22.9664  23.3212  23.8443  25.6557  27.1985  28.7517  30.4096  30.9244

     occupation numbers 
     1.0000   1.0000   1.0000   1.0000   1.0000   1.0000   1.0000   1.0000
     1.0000   1.0000   1.0000   1.0000   1.0000   1.0000   1.0000   1.0000
     1.0017   1.0069   0.0000   0.0000   0.0000   0.0000   0.0000   0.0000
     0.0000   0.0000   0.0000   0.0000   0.0000   0.0000   0.0000   0.0000
     0.0000   0.0000   0.0000   0.0000   0.0000   0.0000   0.0000   0.0000

          k =-0.3333-0.4811 0.0000 (  1468 PWs)   bands (ev):

   -44.2172 -44.2074 -20.5928 -20.5740 -20.5503 -20.5211 -20.5020 -20.4665
    -0.5742  -0.4941   6.3625   7.0536   7.6455   7.8880   8.0518   8.4146
    12.8238  13.2486  13.3164  13.9369  14.6826  15.0652  15.4083  15.9835
    16.1290  16.4225  17.5535  20.1737  20.4032  21.0221  21.5804  21.9902
    22.4798  23.4582  24.1296  24.6438  27.8158  28.1160  28.9883  30.5333

     occupation numbers 
     1.0000   1.0000   1.0000   1.0000   1.0000   1.0000   1.0000   1.0000
     1.0000   1.0000   1.0000   1.0000   1.0000   1.0000   1.0000   1.0000
     1.0748   0.1361   0.0507   0.0000   0.0000   0.0000   0.0000   0.0000
     0.0000   0.0000   0.0000   0.0000   0.0000   0.0000   0.0000   0.0000
     0.0000   0.0000   0.0000   0.0000   0.0000   0.0000   0.0000   0.0000

          k = 0.5833-0.0481 0.0000 (  1468 PWs)   bands (ev):

   -44.2172 -44.2074 -20.5928 -20.5740 -20.5503 -20.5211 -20.5020 -20.4665
    -0.5742  -0.4941   6.3626   7.0536   7.6454   7.8880   8.0517   8.4146
    12.8238  13.2487  13.3163  13.9369  14.6827  15.0653  15.4085  15.9836
    16.1289  16.4221  17.5537  20.1737  20.4034  21.0216  21.5810  21.9898
    22.4795  23.4586  24.1297  24.6438  27.8161  28.1159  28.9882  30.5337

     occupation numbers 
     1.0000   1.0000   1.0000   1.0000   1.0000   1.0000   1.0000   1.0000
     1.0000   1.0000   1.0000   1.0000   1.0000   1.0000   1.0000   1.0000
     1.0749   0.1361   0.0507   0.0000   0.0000   0.0000   0.0000   0.0000
     0.0000   0.0000   0.0000   0.0000   0.0000   0.0000   0.0000   0.0000
     0.0000   0.0000   0.0000   0.0000   0.0000   0.0000   0.0000   0.0000

          k =-0.3333-0.4811-0.1002 (  1465 PWs)   bands (ev):

   -44.2162 -44.2083 -20.5810 -20.5716 -20.5526 -20.5193 -20.5038 -20.4786
    -0.5659  -0.5011   6.4375   6.9913   7.6736   7.9220   8.0569   8.3126
    12.7394  12.8957  13.7114  14.1614  14.7223  14.9615  15.2285  15.7130
    16.3261  16.6625  17.9811  19.2944  19.9055  21.4502  21.7354  22.2434
    22.6375  23.0858  24.1841  25.1720  27.3778  28.7102  28.8505  30.6971

     occupation numbers 
     1.0000   1.0000   1.0000   1.0000   1.0000   1.0000   1.0000   1.0000
     1.0000   1.0000   1.0000   1.0000   1.0000   1.0000   1.0000   1.0000
     1.0374   1.0770   0.0000   0.0000   0.0000   0.0000   0.0000   0.0000
     0.0000   0.0000   0.0000   0.0000   0.0000   0.0000   0.0000   0.0000
     0.0000   0.0000   0.0000   0.0000   0.0000   0.0000   0.0000   0.0000

          k = 0.5833-0.0481-0.1002 (  1465 PWs)   bands (ev):

   -44.2162 -44.2083 -20.5810 -20.5716 -20.5526 -20.5193 -20.5038 -20.4786
    -0.5659  -0.5011   6.4376   6.9913   7.6735   7.9220   8.0569   8.3127
    12.7394  12.8957  13.7114  14.1613  14.7224  14.9615  15.2286  15.7130
    16.3260  16.6623  17.9812  19.2945  19.9053  21.4498  21.7358  22.2430
    22.6381  23.0856  24.1841  25.1719  27.3780  28.7104  28.8502  30.6974

     occupation numbers 
     1.0000   1.0000   1.0000   1.0000   1.0000   1.0000   1.0000   1.0000
     1.0000   1.0000   1.0000   1.0000   1.0000   1.0000   1.0000   1.0000
     1.0374   1.0770   0.0000   0.0000   0.0000   0.0000   0.0000   0.0000
     0.0000   0.0000   0.0000   0.0000   0.0000   0.0000   0.0000   0.0000
     0.0000   0.0000   0.0000   0.0000   0.0000   0.0000   0.0000   0.0000

          k =-0.3333-0.4811-0.2003 (  1464 PWs)   bands (ev):

   -44.2138 -44.2108 -20.5661 -20.5588 -20.5492 -20.5145 -20.5105 -20.5082
    -0.5449  -0.5201   6.6238   6.8324   7.7811   7.9373   8.0589   8.1253
    12.6326  12.6654  14.1564  14.5627  14.6421  14.8236  15.0408  15.2571
    16.7473  16.9551  18.4670  18.7815  19.3946  20.6437  21.8166  22.0459
    23.3171  23.5809  24.5136  25.8258  26.5663  27.9244  30.6507  30.8891

     occupation numbers 
     1.0000   1.0000   1.0000   1.0000   1.0000   1.0000   1.0000   1.0000
     1.0000   1.0000   1.0000   1.0000   1.0000   1.0000   1.0000   1.0000
     1.0080   1.0138   0.0000   0.0000   0.0000   0.0000   0.0000   0.0000
     0.0000   0.0000   0.0000   0.0000   0.0000   0.0000   0.0000   0.0000
     0.0000   0.0000   0.0000   0.0000   0.0000   0.0000   0.0000   0.0000

          k = 0.5833-0.0481-0.2003 (  1464 PWs)   bands (ev):

   -44.2138 -44.2108 -20.5661 -20.5588 -20.5492 -20.5146 -20.5106 -20.5082
    -0.5449  -0.5201   6.6239   6.8324   7.7810   7.9372   8.0589   8.1255
    12.6326  12.6653  14.1565  14.5627  14.6421  14.8236  15.0408  15.2570
    16.7473  16.9550  18.4670  18.7817  19.3944  20.6435  21.8168  22.0461
    23.3171  23.5808  24.5137  25.8260  26.5662  27.9243  30.6508  30.8894

     occupation numbers 
     1.0000   1.0000   1.0000   1.0000   1.0000   1.0000   1.0000   1.0000
     1.0000   1.0000   1.0000   1.0000   1.0000   1.0000   1.0000   1.0000
     1.0080   1.0137   0.0000   0.0000   0.0000   0.0000   0.0000   0.0000
     0.0000   0.0000   0.0000   0.0000   0.0000   0.0000   0.0000   0.0000
     0.0000   0.0000   0.0000   0.0000   0.0000   0.0000   0.0000   0.0000

     the Fermi energy is    13.1483 ev

!    total energy              =    -287.11763643 Ry
     estimated scf accuracy    <          5.4E-10 Ry
     smearing contrib. (-TS)   =      -0.00010622 Ry
     internal energy E=F+TS    =    -287.11753021 Ry

     The total energy is F=E-TS. E is the sum of the following terms:
     one-electron contribution =     -82.53049009 Ry
     hartree contribution      =      56.92729479 Ry
     xc contribution           =     -53.29019448 Ry
     ewald contribution        =    -208.22414043 Ry

     convergence has been achieved in   9 iterations

     Writing output data file ../out/TiS.save/

     init_run     :      1.24s CPU      1.32s WALL (       1 calls)
     electrons    :     35.91s CPU     38.27s WALL (       1 calls)

     Called by init_run:
     wfcinit      :      1.06s CPU      1.14s WALL (       1 calls)
     wfcinit:atom :      0.01s CPU      0.01s WALL (     129 calls)
     wfcinit:wfcr :      1.02s CPU      1.10s WALL (     129 calls)
     potinit      :      0.03s CPU      0.03s WALL (       1 calls)
     hinit0       :      0.11s CPU      0.11s WALL (       1 calls)

     Called by electrons:
     c_bands      :     32.23s CPU     34.17s WALL (       9 calls)
     sum_band     :      3.44s CPU      3.76s WALL (       9 calls)
     v_of_rho     :      0.05s CPU      0.06s WALL (      10 calls)
     v_h          :      0.00s CPU      0.00s WALL (      10 calls)
     v_xc         :      0.05s CPU      0.06s WALL (      10 calls)
     newd         :      0.21s CPU      0.21s WALL (      10 calls)
     mix_rho      :      0.01s CPU      0.01s WALL (       9 calls)

     Called by c_bands:
     init_us_2    :      0.20s CPU      0.21s WALL (    2451 calls)
     cegterg      :     31.32s CPU     33.23s WALL (    1161 calls)

     Called by sum_band:
     sum_band:wei :      0.02s CPU      0.02s WALL (       9 calls)
     sum_band:loo :      3.20s CPU      3.52s WALL (       9 calls)
     sum_band:buf :      0.03s CPU      0.03s WALL (    1161 calls)
     sum_band:ini :      0.09s CPU      0.10s WALL (    1161 calls)
     sum_band:cal :      0.92s CPU      1.00s WALL (    1161 calls)
     sum_band:bec :      0.07s CPU      0.07s WALL (    1161 calls)
     addusdens    :      0.21s CPU      0.21s WALL (       9 calls)
     addusd:skk   :      0.00s CPU      0.00s WALL (      18 calls)
     addusd:dgemm :      0.09s CPU      0.09s WALL (      18 calls)
     addusd:qvan2 :      0.11s CPU      0.11s WALL (      18 calls)

     Called by *egterg:
     cdiaghg      :      5.47s CPU      5.64s WALL (    4863 calls)
     cegterg:over :      3.08s CPU      3.19s WALL (    3702 calls)
     cegterg:upda :      1.50s CPU      1.53s WALL (    3702 calls)
     cegterg:last :      4.19s CPU      4.27s WALL (    2457 calls)
     cdiaghg:chol :      0.28s CPU      0.29s WALL (    4863 calls)
     cdiaghg:inve :      0.06s CPU      0.06s WALL (    4863 calls)
     cdiaghg:para :      1.12s CPU      1.16s WALL (    9726 calls)
     h_psi        :     14.59s CPU     15.95s WALL (    4992 calls)
     s_psi        :      2.15s CPU      2.32s WALL (    4992 calls)
     g_psi        :      0.12s CPU      0.13s WALL (    3702 calls)

     Called by h_psi:
     h_psi:calbec :      2.21s CPU      2.51s WALL (    4992 calls)
     vloc_psi     :     10.21s CPU     11.05s WALL (    4992 calls)
     add_vuspsi   :      2.13s CPU      2.35s WALL (    4992 calls)

     General routines
     calbec       :      3.12s CPU      3.50s WALL (    6153 calls)
     fft          :      0.03s CPU      0.03s WALL (     128 calls)
     ffts         :      0.00s CPU      0.00s WALL (      19 calls)
     fftw         :     10.87s CPU     11.80s WALL (  276532 calls)
     interpolate  :      0.00s CPU      0.00s WALL (      10 calls)

     Parallel routines
     fft_scatt_xy :      1.28s CPU      1.39s WALL (  276679 calls)
     fft_scatt_yz :      3.61s CPU      3.97s WALL (  276679 calls)

     PWSCF        :     37.41s CPU     44.16s WALL


   This run was terminated on:  20:13:30   8Oct2023            

=------------------------------------------------------------------------------=
   JOB DONE.
=------------------------------------------------------------------------------=
